 Entering Gaussian System, Link 0=
 Input=Gaussian_CCSD-full_ACC6_HeHe_2.000.gjf
 Output=Gaussian_CCSD-full_ACC6_HeHe_2.000.log
 AtFile(1): ACC6m_gaussian_HeHe.gbs
            He     0
            S    10   1.00
                  4.785000D+03           6.000000D-07
                  7.170000D+02           4.700000D-06
                  1.632000D+02           2.440000D-05
                  4.626000D+01           1.012000D-04
                  1.510000D+01           3.486000D-04
                  5.437000D+00           9.841000D-04
                  2.088000D+00           2.163100D-03
                  8.297000D-01           3.490500D-03
                  3.366000D-01           3.466000D-03
                  1.369000D-01           1.151900D-03
            S    1   1.00
                  5.437000D+00           1.000000D+00
            S    1   1.00
                  2.088000D+00           1.000000D+00
            S    1   1.00
                  8.297000D-01           1.000000D+00
            S    1   1.00
                  3.366000D-01           1.000000D+00
            S    1   1.00
                  1.369000D-01           1.000000D+00
            S    1   1.00
                  0.04473                1.0000
            P    1   1.00
                  1.610400D+01           1.000000D+00
            P    1   1.00
                  6.342000D+00           1.000000D+00
            P    1   1.00
                  2.498000D+00           1.000000D+00
            P    1   1.00
                  9.840000D-01           1.000000D+00
            P    1   1.00
                  3.870000D-01           1.000000D+00
            P    1   1.00
                  0.1280                 1.0000
            D    1   1.00
                  1.249800D+01           1.000000D+00
            D    1   1.00
                  4.886000D+00           1.000000D+00
            D    1   1.00
                  1.910000D+00           1.000000D+00
            D    1   1.00
                  7.470000D-01           1.000000D+00
            D    1   1.00
                  0.2410                 1.0000
            F    1   1.00
                  9.276000D+00           1.000000D+00
            F    1   1.00
                  3.462000D+00           1.000000D+00
            F    1   1.00
                  1.292000D+00           1.000000D+00
            F    1   1.00
                  0.4070                 1.0000
            G    1   1.00
                  6.586000D+00           1.000000D+00
            G    1   1.00
                  2.236000D+00           1.000000D+00
            G    1   1.00
                  0.6860                 1.0000
            H    1   1.00
                  4.159000D+00           1.0000000
            H    1   1.00
                  1.0160                 1.0000
            ****
  
 Copyright (c) 1988,1990,1992,1993,1995,1998,2003,2009,2016,
            Gaussian, Inc.  All Rights Reserved.
  
 This is part of the Gaussian(R) 16 program.  It is based on
 the Gaussian(R) 09 system (copyright 2009, Gaussian, Inc.),
 the Gaussian(R) 03 system (copyright 2003, Gaussian, Inc.),
 the Gaussian(R) 98 system (copyright 1998, Gaussian, Inc.),
 the Gaussian(R) 94 system (copyright 1995, Gaussian, Inc.),
 the Gaussian 92(TM) system (copyright 1992, Gaussian, Inc.),
 the Gaussian 90(TM) system (copyright 1990, Gaussian, Inc.),
 the Gaussian 88(TM) system (copyright 1988, Gaussian, Inc.),
 the Gaussian 86(TM) system (copyright 1986, Carnegie Mellon
 University), and the Gaussian 82(TM) system (copyright 1983,
 Carnegie Mellon University). Gaussian is a federally registered
 trademark of Gaussian, Inc.
  
 This software contains proprietary and confidential information,
 including trade secrets, belonging to Gaussian, Inc.
  
 This software is provided under written license and may be
 used, copied, transmitted, or stored only in accord with that
 written license.
  
 The following legend is applicable only to US Government
 contracts under FAR:
  
                    RESTRICTED RIGHTS LEGEND
  
 Use, reproduction and disclosure by the US Government is
 subject to restrictions as set forth in subparagraphs (a)
 and (c) of the Commercial Computer Software - Restricted
 Rights clause in FAR 52.227-19.
  
 Gaussian, Inc.
 340 Quinnipiac St., Bldg. 40, Wallingford CT 06492
  
  
 ---------------------------------------------------------------
 Warning -- This program may not be used in any manner that
 competes with the business of Gaussian, Inc. or will provide
 assistance to any competitor of Gaussian, Inc.  The licensee
 of this program is prohibited from giving any competitor of
 Gaussian, Inc. access to this program.  By using this program,
 the user acknowledges that Gaussian, Inc. is engaged in the
 business of creating and licensing software in the field of
 computational chemistry and represents and warrants to the
 licensee that it is not a competitor of Gaussian, Inc. and that
 it will not use this program in any manner prohibited above.
 ---------------------------------------------------------------
  

 Cite this work as:
 Gaussian 16, Revision A.03,
 M. J. Frisch, G. W. Trucks, H. B. Schlegel, G. E. Scuseria, 
 M. A. Robb, J. R. Cheeseman, G. Scalmani, V. Barone, 
 G. A. Petersson, H. Nakatsuji, X. Li, M. Caricato, A. V. Marenich, 
 J. Bloino, B. G. Janesko, R. Gomperts, B. Mennucci, H. P. Hratchian, 
 J. V. Ortiz, A. F. Izmaylov, J. L. Sonnenberg, D. Williams-Young, 
 F. Ding, F. Lipparini, F. Egidi, J. Goings, B. Peng, A. Petrone, 
 T. Henderson, D. Ranasinghe, V. G. Zakrzewski, J. Gao, N. Rega, 
 G. Zheng, W. Liang, M. Hada, M. Ehara, K. Toyota, R. Fukuda, 
 J. Hasegawa, M. Ishida, T. Nakajima, Y. Honda, O. Kitao, H. Nakai, 
 T. Vreven, K. Throssell, J. A. Montgomery, Jr., J. E. Peralta, 
 F. Ogliaro, M. J. Bearpark, J. J. Heyd, E. N. Brothers, K. N. Kudin, 
 V. N. Staroverov, T. A. Keith, R. Kobayashi, J. Normand, 
 K. Raghavachari, A. P. Rendell, J. C. Burant, S. S. Iyengar, 
 J. Tomasi, M. Cossi, J. M. Millam, M. Klene, C. Adamo, R. Cammi, 
 J. W. Ochterski, R. L. Martin, K. Morokuma, O. Farkas, 
 J. B. Foresman, and D. J. Fox, Gaussian, Inc., Wallingford CT, 2016.
 
 ******************************************
 Gaussian 16:  ES64L-G16RevA.03 25-Dec-2016 
 ******************************************
 %nprocshared = 24
 Will use up to   24 processors via shared memory.
 %mem = 80GB
 ----------------------------------------------------------------------
 #p CCSD-full/GEN Integral=(grid=999974) SCF=(Conver=11) output = wfn d
 ensity = current Force
 ----------------------------------------------------------------------
 1/10=7,30=1,38=1/1,3;
 2/12=2,17=6,18=5,40=1/2;
 3/5=7,11=9,25=1,30=1,71=1,75=999974/1,2,3;
 4//1;
 5/5=2,6=11,38=5/2;
 8/6=4,9=120000,10=90/1,4;
 9/5=7,15=1/13;
 11/28=-8,29=200,42=3/11;
 10/5=6/2;
 6/7=2,8=2,9=2,10=2,18=1,22=-1,31=2/1;
 7/12=7,29=1/1,2,3,16;
 1/10=7,30=1/3;
 99/6=1100/99;
 ----------------------------------
 title calculation of HelFey forces
 ----------------------------------
 Symbolic Z-matrix:
 Charge =  0 Multiplicity = 1
 He                    0.        0.       -1. 
 He                    0.        0.        1. 
 
 ITRead=  0  0
 MicOpt= -1 -1
 NAtoms=      2 NQM=        2 NQMF=       0 NMMI=      0 NMMIF=      0
                NMic=       0 NMicF=      0.
                    Isotopes and Nuclear Properties:
 (Nuclear quadrupole moments (NQMom) in fm**2, nuclear magnetic moments (NMagM)
  in nuclear magnetons)

  Atom         1           2
 IAtWgt=           4           4
 AtmWgt=   4.0026032   4.0026032
 NucSpn=           0           0
 AtZEff=  -0.0000000  -0.0000000
 NQMom=    0.0000000   0.0000000
 NMagM=    0.0000000   0.0000000
 AtZNuc=   2.0000000   2.0000000

 GradGradGradGradGradGradGradGradGradGradGradGradGradGradGradGradGradGrad
 Berny optimization.
 Initialization pass.
 Trust Radius=3.00D-01 FncErr=1.00D-07 GrdErr=1.00D-07 EigMax=2.50D+02 EigMin=1.00D-04
 Number of steps in this run=      2 maximum allowed number of steps=      2.
 GradGradGradGradGradGradGradGradGradGradGradGradGradGradGradGradGradGrad

                          Input orientation:                          
 ---------------------------------------------------------------------
 Center     Atomic      Atomic             Coordinates (Angstroms)
 Number     Number       Type             X           Y           Z
 ---------------------------------------------------------------------
      1          2           0        0.000000    0.000000   -1.000000
      2          2           0        0.000000    0.000000    1.000000
 ---------------------------------------------------------------------
 Stoichiometry    He2
 Framework group  D*H[C*(He.He)]
 Deg. of freedom     1
 Full point group                 D*H     NOp   8
 Largest Abelian subgroup         D2H     NOp   8
 Largest concise Abelian subgroup C2      NOp   2
                         Standard orientation:                         
 ---------------------------------------------------------------------
 Center     Atomic      Atomic             Coordinates (Angstroms)
 Number     Number       Type             X           Y           Z
 ---------------------------------------------------------------------
      1          2           0        0.000000    0.000000    1.000000
      2          2           0        0.000000    0.000000   -1.000000
 ---------------------------------------------------------------------
 Rotational constants (GHZ):           0.0000000          63.1312895          63.1312895
 General basis read from cards:  (5D, 7F)
 Centers:       1      2
 S 10 1.00
     Exponent=  4.7850000000D+03 Coefficients=  6.0000000000D-07
     Exponent=  7.1700000000D+02 Coefficients=  4.7000000000D-06
     Exponent=  1.6320000000D+02 Coefficients=  2.4400000000D-05
     Exponent=  4.6260000000D+01 Coefficients=  1.0120000000D-04
     Exponent=  1.5100000000D+01 Coefficients=  3.4860000000D-04
     Exponent=  5.4370000000D+00 Coefficients=  9.8410000000D-04
     Exponent=  2.0880000000D+00 Coefficients=  2.1631000000D-03
     Exponent=  8.2970000000D-01 Coefficients=  3.4905000000D-03
     Exponent=  3.3660000000D-01 Coefficients=  3.4660000000D-03
     Exponent=  1.3690000000D-01 Coefficients=  1.1519000000D-03
 S 1 1.00
     Exponent=  5.4370000000D+00 Coefficients=  1.0000000000D+00
 S 1 1.00
     Exponent=  2.0880000000D+00 Coefficients=  1.0000000000D+00
 S 1 1.00
     Exponent=  8.2970000000D-01 Coefficients=  1.0000000000D+00
 S 1 1.00
     Exponent=  3.3660000000D-01 Coefficients=  1.0000000000D+00
 S 1 1.00
     Exponent=  1.3690000000D-01 Coefficients=  1.0000000000D+00
 S 1 1.00
     Exponent=  4.4730000000D-02 Coefficients=  1.0000000000D+00
 P 1 1.00
     Exponent=  1.6104000000D+01 Coefficients=  1.0000000000D+00
 P 1 1.00
     Exponent=  6.3420000000D+00 Coefficients=  1.0000000000D+00
 P 1 1.00
     Exponent=  2.4980000000D+00 Coefficients=  1.0000000000D+00
 P 1 1.00
     Exponent=  9.8400000000D-01 Coefficients=  1.0000000000D+00
 P 1 1.00
     Exponent=  3.8700000000D-01 Coefficients=  1.0000000000D+00
 P 1 1.00
     Exponent=  1.2800000000D-01 Coefficients=  1.0000000000D+00
 D 1 1.00
     Exponent=  1.2498000000D+01 Coefficients=  1.0000000000D+00
 D 1 1.00
     Exponent=  4.8860000000D+00 Coefficients=  1.0000000000D+00
 D 1 1.00
     Exponent=  1.9100000000D+00 Coefficients=  1.0000000000D+00
 D 1 1.00
     Exponent=  7.4700000000D-01 Coefficients=  1.0000000000D+00
 D 1 1.00
     Exponent=  2.4100000000D-01 Coefficients=  1.0000000000D+00
 F 1 1.00
     Exponent=  9.2760000000D+00 Coefficients=  1.0000000000D+00
 F 1 1.00
     Exponent=  3.4620000000D+00 Coefficients=  1.0000000000D+00
 F 1 1.00
     Exponent=  1.2920000000D+00 Coefficients=  1.0000000000D+00
 F 1 1.00
     Exponent=  4.0700000000D-01 Coefficients=  1.0000000000D+00
 G 1 1.00
     Exponent=  6.5860000000D+00 Coefficients=  1.0000000000D+00
 G 1 1.00
     Exponent=  2.2360000000D+00 Coefficients=  1.0000000000D+00
 G 1 1.00
     Exponent=  6.8600000000D-01 Coefficients=  1.0000000000D+00
 H 1 1.00
     Exponent=  4.1590000000D+00 Coefficients=  1.0000000000D+00
 H 1 1.00
     Exponent=  1.0160000000D+00 Coefficients=  1.0000000000D+00
 ****
 Ernie: Thresh=  0.10000D-02 Tol=  0.10000D-05 Strict=F.
 There are    70 symmetry adapted cartesian basis functions of AG  symmetry.
 There are    24 symmetry adapted cartesian basis functions of B1G symmetry.
 There are    44 symmetry adapted cartesian basis functions of B2G symmetry.
 There are    44 symmetry adapted cartesian basis functions of B3G symmetry.
 There are    24 symmetry adapted cartesian basis functions of AU  symmetry.
 There are    70 symmetry adapted cartesian basis functions of B1U symmetry.
 There are    44 symmetry adapted cartesian basis functions of B2U symmetry.
 There are    44 symmetry adapted cartesian basis functions of B3U symmetry.
 There are    46 symmetry adapted basis functions of AG  symmetry.
 There are    19 symmetry adapted basis functions of B1G symmetry.
 There are    31 symmetry adapted basis functions of B2G symmetry.
 There are    31 symmetry adapted basis functions of B3G symmetry.
 There are    19 symmetry adapted basis functions of AU  symmetry.
 There are    46 symmetry adapted basis functions of B1U symmetry.
 There are    31 symmetry adapted basis functions of B2U symmetry.
 There are    31 symmetry adapted basis functions of B3U symmetry.
   254 basis functions,   382 primitive gaussians,   364 cartesian basis functions
     2 alpha electrons        2 beta electrons
       nuclear repulsion energy         1.0583544218 Hartrees.
 IExCor=    0 DFT=F Ex=HF Corr=None ExCW=0 ScaHFX=  1.000000
 ScaDFX=  1.000000  1.000000  1.000000  1.000000 ScalE2=  1.000000  1.000000
 IRadAn= 999974 IRanWt=     -1 IRanGd=            0 ICorTp=0 IEmpDi=  4
 NAtoms=    2 NActive=    2 NUniq=    1 SFac= 4.00D+00 NAtFMM=   60 NAOKFM=F Big=F
 Integral buffers will be    131072 words long.
 Raffenetti 1 integral format.
 Two-electron integral symmetry is turned on.
 NPDir=0 NMtPBC=     1 NCelOv=     1 NCel=       1 NClECP=     1 NCelD=      1
         NCelK=      1 NCelE2=     1 NClLst=     1 CellRange=     0.0.
 One-electron integrals computed using PRISM.
 One-electron integral symmetry used in STVInt
 NBasis=   254 RedAO= T EigKep=  3.84D-04  NBF=    46    19    31    31    19    46    31    31
 NBsUse=   254 1.00D-06 EigRej= -1.00D+00 NBFU=    46    19    31    31    19    46    31    31
 DipDrv:  MaxL=1.
 ExpMin= 4.47D-02 ExpMax= 4.79D+03 ExpMxC= 4.63D+01 IAcc=4 IRadAn=    999974 AccDes= 0.00D+00
 Harris functional with IExCor=  205 and IRadAn=  999974 diagonalized for initial guess.
 HarFok:  IExCor=  205 AccDes= 0.00D+00 IRadAn=    999974 IDoV= 1 UseB2=F ITyADJ=14
 ICtDFT=  3500011 ScaDFX=  1.000000  1.000000  1.000000  1.000000
 FoFCou: FMM=F IPFlag=           0 FMFlag=      100000 FMFlg1=           0
         NFxFlg=           0 DoJE=T BraDBF=F KetDBF=T FulRan=T
         wScrn=  0.000000 ICntrl=       500 IOpCl=  0 I1Cent=   200000004 NGrid=           0
         NMat0=    1 NMatS0=      1 NMatT0=    0 NMatD0=    1 NMtDS0=    0 NMtDT0=    0
 Petite list used in FoFCou.
 Harris En= -5.74409757743532    
 JPrj=0 DoOrth=F DoCkMO=F.
 Initial guess orbital symmetries:
       Occupied  (SGG) (SGU)
       Virtual   (SGG) (SGU) (PIU) (PIU) (SGG) (PIG) (PIG) (SGU)
                 (SGG) (SGU) (DLTG) (DLTG) (PIU) (PIU) (SGG) (DLTU)
                 (DLTU) (SGU) (PIU) (PIU) (PIG) (PIG) (PIG) (PIG)
                 (SGG) (SGU) (SGG) (DLTG) (DLTG) (SGU) (PHIU) (PHIU)
                 (PHIG) (PHIG) (PIU) (PIU) (DLTU) (DLTU) (SGG)
                 (SGU) (PIG) (PIG) (DLTG) (DLTG) (PIU) (PIU) (DLTU)
                 (DLTU) (PIG) (PIG) (SGG) (PIU) (PIU) (SGU) (SGG)
                 (PIG) (PIG) (DLTG) (DLTG) (PHIU) (PHIU) (?A) (?A)
                 (?B) (?B) (PIU) (PIU) (SGU) (PHIG) (PHIG) (SGG)
                 (DLTU) (DLTU) (SGU) (SGG) (PIG) (PIG) (SGU) (PHIU)
                 (PHIU) (DLTG) (DLTG) (PIU) (PIU) (PHIG) (PHIG)
                 (SGU) (DLTU) (DLTU) (SGG) (DLTG) (DLTG) (PIG)
                 (PIG) (PHIU) (PHIU) (?A) (?A) (?C) (?C) (?D) (?D)
                 (?B) (?B) (PIU) (PIU) (SGG) (PHIG) (PHIG) (SGU)
                 (PIG) (PIG) (DLTU) (DLTU) (DLTG) (DLTG) (DLTU)
                 (DLTU) (PIU) (PIU) (SGG) (PIG) (PIG) (PIU) (PIU)
                 (SGU) (PIG) (PIG) (SGG) (SGU) (PHIU) (PHIU) (DLTG)
                 (DLTG) (?A) (?A) (?B) (?B) (PHIG) (PHIG) (PIU)
                 (PIU) (SGU) (DLTU) (DLTU) (SGG) (PIG) (PIG) (SGG)
                 (SGU) (PHIU) (PHIU) (DLTG) (DLTG) (PHIG) (PHIG)
                 (DLTU) (DLTU) (SGU) (PIU) (PIU) (PIG) (PIG) (SGG)
                 (DLTG) (DLTG) (DLTU) (DLTU) (PIU) (PIU) (SGG)
                 (PIG) (PIG) (SGU) (PIU) (PIU) (PIG) (PIG) (SGG)
                 (SGU) (DLTG) (DLTG) (PHIU) (PHIU) (PIU) (PIU)
                 (?A) (?A) (?C) (?C) (?D) (?D) (SGG) (?B) (?B)
                 (PHIG) (PHIG) (DLTU) (DLTU) (SGU) (PIG) (PIG)
                 (DLTG) (DLTG) (PHIU) (PHIU) (?A) (?A) (?B) (?B)
                 (PHIG) (PHIG) (PIU) (PIU) (DLTU) (DLTU) (SGU)
                 (SGG) (PIG) (PIG) (PHIU) (PHIU) (DLTG) (DLTG)
                 (PHIG) (PHIG) (DLTU) (DLTU) (SGU) (PIU) (PIU)
                 (PIG) (PIG) (SGG) (SGG) (SGU) (DLTG) (DLTG) (DLTU)
                 (DLTU) (PIU) (PIU) (SGG) (PIG) (PIG) (SGU) (PIU)
                 (PIU) (PIG) (PIG) (SGG) (SGU)
 The electronic state of the initial guess is 1-SGG.
 Keep R1 ints in memory in symmetry-blocked form, NReq=623333617.
 FoFCou: FMM=F IPFlag=           0 FMFlag=           0 FMFlg1=           0
         NFxFlg=           0 DoJE=F BraDBF=F KetDBF=F FulRan=T
         wScrn=  0.000000 ICntrl=       600 IOpCl=  0 I1Cent=           0 NGrid=           0
         NMat0=    1 NMatS0=  32385 NMatT0=    0 NMatD0=    1 NMtDS0=    0 NMtDT0=    0
 Petite list used in FoFCou.
 Closed shell SCF:
 Using DIIS extrapolation, IDIIS=  1040.
 NGot= 10737418240 LenX= 10671173495 LenY= 10671040558
 Requested convergence on RMS density matrix=1.00D-11 within 128 cycles.
 Requested convergence on MAX density matrix=1.00D-09.
 Requested convergence on             energy=1.00D-09.
 No special actions if energy rises.

 Cycle   1  Pass 1  IDiag  1:
 E= -5.71463867039919    
 DIIS: error= 1.53D-02 at cycle   1 NSaved=   1.
 NSaved= 1 IEnMin= 1 EnMin= -5.71463867039919     IErMin= 1 ErrMin= 1.53D-02
 ErrMax= 1.53D-02  0.00D+00 EMaxC= 1.00D-01 BMatC= 5.25D-03 BMatP= 5.25D-03
 IDIUse=3 WtCom= 8.47D-01 WtEn= 1.53D-01
 Coeff-Com:  0.100D+01
 Coeff-En:   0.100D+01
 Coeff:      0.100D+01
 Gap=     1.001 Goal=   None    Shift=    0.000
 GapD=    1.001 DampG=2.000 DampE=0.500 DampFc=1.0000 IDamp=-1.
 RMSDP=3.06D-04 MaxDP=3.38D-02              OVMax= 3.55D-02

 Cycle   2  Pass 1  IDiag  1:
 E= -5.72088202711422     Delta-E=       -0.006243356715 Rises=F Damp=F
 DIIS: error= 2.10D-03 at cycle   2 NSaved=   2.
 NSaved= 2 IEnMin= 2 EnMin= -5.72088202711422     IErMin= 2 ErrMin= 2.10D-03
 ErrMax= 2.10D-03  0.00D+00 EMaxC= 1.00D-01 BMatC= 1.38D-04 BMatP= 5.25D-03
 IDIUse=3 WtCom= 9.79D-01 WtEn= 2.10D-02
 Coeff-Com: -0.135D+00 0.113D+01
 Coeff-En:   0.000D+00 0.100D+01
 Coeff:     -0.132D+00 0.113D+01
 Gap=     0.979 Goal=   None    Shift=    0.000
 RMSDP=7.56D-05 MaxDP=7.95D-03 DE=-6.24D-03 OVMax= 7.08D-03

 Cycle   3  Pass 1  IDiag  1:
 E= -5.72107202752813     Delta-E=       -0.000190000414 Rises=F Damp=F
 DIIS: error= 2.14D-04 at cycle   3 NSaved=   3.
 NSaved= 3 IEnMin= 3 EnMin= -5.72107202752813     IErMin= 3 ErrMin= 2.14D-04
 ErrMax= 2.14D-04  0.00D+00 EMaxC= 1.00D-01 BMatC= 1.55D-06 BMatP= 1.38D-04
 IDIUse=3 WtCom= 9.98D-01 WtEn= 2.14D-03
 Coeff-Com:  0.149D-01-0.175D+00 0.116D+01
 Coeff-En:   0.000D+00 0.000D+00 0.100D+01
 Coeff:      0.149D-01-0.175D+00 0.116D+01
 Gap=     0.979 Goal=   None    Shift=    0.000
 RMSDP=1.11D-05 MaxDP=9.81D-04 DE=-1.90D-04 OVMax= 7.99D-04

 Cycle   4  Pass 1  IDiag  1:
 E= -5.72107418099162     Delta-E=       -0.000002153463 Rises=F Damp=F
 DIIS: error= 1.07D-05 at cycle   4 NSaved=   4.
 NSaved= 4 IEnMin= 4 EnMin= -5.72107418099162     IErMin= 4 ErrMin= 1.07D-05
 ErrMax= 1.07D-05  0.00D+00 EMaxC= 1.00D-01 BMatC= 4.16D-09 BMatP= 1.55D-06
 IDIUse=1 WtCom= 1.00D+00 WtEn= 0.00D+00
 Coeff-Com: -0.143D-02 0.178D-01-0.151D+00 0.113D+01
 Coeff:     -0.143D-02 0.178D-01-0.151D+00 0.113D+01
 Gap=     0.979 Goal=   None    Shift=    0.000
 RMSDP=8.02D-07 MaxDP=7.81D-05 DE=-2.15D-06 OVMax= 4.80D-05

 Cycle   5  Pass 1  IDiag  1:
 E= -5.72107418779142     Delta-E=       -0.000000006800 Rises=F Damp=F
 DIIS: error= 5.13D-07 at cycle   5 NSaved=   5.
 NSaved= 5 IEnMin= 5 EnMin= -5.72107418779142     IErMin= 5 ErrMin= 5.13D-07
 ErrMax= 5.13D-07  0.00D+00 EMaxC= 1.00D-01 BMatC= 8.42D-12 BMatP= 4.16D-09
 IDIUse=1 WtCom= 1.00D+00 WtEn= 0.00D+00
 Coeff-Com:  0.124D-03-0.161D-02 0.149D-01-0.142D+00 0.113D+01
 Coeff:      0.124D-03-0.161D-02 0.149D-01-0.142D+00 0.113D+01
 Gap=     0.979 Goal=   None    Shift=    0.000
 RMSDP=3.18D-08 MaxDP=2.84D-06 DE=-6.80D-09 OVMax= 2.15D-06

 Cycle   6  Pass 1  IDiag  1:
 E= -5.72107418780482     Delta-E=       -0.000000000013 Rises=F Damp=F
 DIIS: error= 2.50D-08 at cycle   6 NSaved=   6.
 NSaved= 6 IEnMin= 6 EnMin= -5.72107418780482     IErMin= 6 ErrMin= 2.50D-08
 ErrMax= 2.50D-08  0.00D+00 EMaxC= 1.00D-01 BMatC= 2.06D-14 BMatP= 8.42D-12
 IDIUse=1 WtCom= 1.00D+00 WtEn= 0.00D+00
 Coeff-Com: -0.120D-04 0.164D-03-0.160D-02 0.163D-01-0.153D+00 0.114D+01
 Coeff:     -0.120D-04 0.164D-03-0.160D-02 0.163D-01-0.153D+00 0.114D+01
 Gap=     0.979 Goal=   None    Shift=    0.000
 RMSDP=2.07D-09 MaxDP=1.69D-07 DE=-1.34D-11 OVMax= 9.02D-08

 Cycle   7  Pass 1  IDiag  1:
 E= -5.72107418780484     Delta-E=       -0.000000000000 Rises=F Damp=F
 DIIS: error= 2.11D-09 at cycle   7 NSaved=   7.
 NSaved= 7 IEnMin= 7 EnMin= -5.72107418780484     IErMin= 7 ErrMin= 2.11D-09
 ErrMax= 2.11D-09  0.00D+00 EMaxC= 1.00D-01 BMatC= 1.05D-16 BMatP= 2.06D-14
 IDIUse=1 WtCom= 1.00D+00 WtEn= 0.00D+00
 Coeff-Com:  0.232D-06-0.420D-05 0.492D-04-0.582D-03 0.696D-02-0.102D+00
 Coeff-Com:  0.110D+01
 Coeff:      0.232D-06-0.420D-05 0.492D-04-0.582D-03 0.696D-02-0.102D+00
 Coeff:      0.110D+01
 Gap=     0.979 Goal=   None    Shift=    0.000
 RMSDP=5.72D-11 MaxDP=3.86D-09 DE=-2.04D-14 OVMax= 5.03D-09

 Cycle   8  Pass 1  IDiag  1:
 E= -5.72107418780484     Delta-E=       -0.000000000000 Rises=F Damp=F
 DIIS: error= 2.07D-10 at cycle   8 NSaved=   8.
 NSaved= 8 IEnMin= 8 EnMin= -5.72107418780484     IErMin= 8 ErrMin= 2.07D-10
 ErrMax= 2.07D-10  0.00D+00 EMaxC= 1.00D-01 BMatC= 1.28D-18 BMatP= 1.05D-16
 IDIUse=1 WtCom= 1.00D+00 WtEn= 0.00D+00
 Coeff-Com:  0.554D-07-0.593D-06 0.440D-05-0.330D-04 0.104D-03 0.764D-02
 Coeff-Com: -0.188D+00 0.118D+01
 Coeff:      0.554D-07-0.593D-06 0.440D-05-0.330D-04 0.104D-03 0.764D-02
 Coeff:     -0.188D+00 0.118D+01
 Gap=     0.979 Goal=   None    Shift=    0.000
 RMSDP=1.80D-11 MaxDP=1.59D-09 DE=-6.22D-15 OVMax= 6.72D-10

 Cycle   9  Pass 1  IDiag  1:
 E= -5.72107418780484     Delta-E=        0.000000000000 Rises=F Damp=F
 DIIS: error= 1.23D-11 at cycle   9 NSaved=   9.
 NSaved= 9 IEnMin= 8 EnMin= -5.72107418780484     IErMin= 9 ErrMin= 1.23D-11
 ErrMax= 1.23D-11  0.00D+00 EMaxC= 1.00D-01 BMatC= 2.92D-21 BMatP= 1.28D-18
 IDIUse=1 WtCom= 1.00D+00 WtEn= 0.00D+00
 Coeff-Com: -0.738D-08 0.764D-07-0.515D-06 0.342D-05 0.590D-06-0.148D-02
 Coeff-Com:  0.346D-01-0.225D+00 0.119D+01
 Coeff:     -0.738D-08 0.764D-07-0.515D-06 0.342D-05 0.590D-06-0.148D-02
 Coeff:      0.346D-01-0.225D+00 0.119D+01
 Gap=     0.979 Goal=   None    Shift=    0.000
 RMSDP=3.29D-13 MaxDP=3.33D-11 DE= 5.33D-15 OVMax= 4.07D-11

 SCF Done:  E(RHF) =  -5.72107418780     A.U. after    9 cycles
            NFock=  9  Conv=0.33D-12     -V/T= 1.9965
 KE= 5.741013285339D+00 PE=-1.563068167237D+01 EE= 3.110239777388D+00
 Windowed orbitals will be sorted by symmetry type.
 Range of M.O.s used for correlation:     1   254
 NBasis=   254 NAE=     2 NBE=     2 NFC=     0 NFV=     0
 NROrb=    254 NOA=     2 NOB=     2 NVA=   252 NVB=   252

 **** Warning!!: The largest alpha MO coefficient is  0.31062473D+02

 Closed-shell transformation, MDV= 10737418240 ITran=4 ISComp=2.
 Unit  1 TFree=       2135616 TCopy=       1068753.
 Semi-Direct transformation.
 ModeAB=           4 MOrb=             2 LenV=   10735629375
 LASXX=      2063059 LTotXX=     2063059 LenRXX=     4157850
 LTotAB=     2094791 MaxLAS=    17543272 LenRXY=           0
 NonZer=     6220909 LenScr=    10103808 LnRSAI=    17543272
 LnScr1=    27077120 LExtra=           0 Total=     58882050
 MaxDsk=          -1 SrtSym=           T ITran=            4
 DoSDTr:  NPSUse= 24
 JobTyp=0 Pass  1:  I=   1 to   2.
 (rs|ai) integrals will be sorted in core.
 Complete sort for first half transformation.
 First half transformation complete.
 Complete sort for second half transformation.
 Second half transformation complete.
 Spin components of T(2) and E(2):
     alpha-alpha T2 =       0.3067085953D-04 E2=     -0.1219963168D-03
     alpha-beta  T2 =       0.1126420679D-01 E2=     -0.7401446562D-01
     beta-beta   T2 =       0.3067085953D-04 E2=     -0.1219963168D-03
 ANorm=    0.1005646831D+01
 E2 =    -0.7425845825D-01 EUMP2 =    -0.57953326460583D+01
 CIDS:  MDV= 10737418240.
 IFCWin=0 IBDFC=1 NFBD=     0     0 NFCmp=     0     0 NFFFC=     0     0
 Using DD3R+UMP44R for 1st iteration.
 Using DD4RQ for 2nd and later iterations.
 Keep R2 and R3 ints in memory in symmetry-blocked form, NReq=623337671.
 FoFCou: FMM=F IPFlag=           0 FMFlag=           0 FMFlg1=           0
         NFxFlg=           0 DoJE=F BraDBF=F KetDBF=F FulRan=T
         wScrn=  0.000000 ICntrl=       600 IOpCl=  0 I1Cent=           0 NGrid=           0
         NMat0=    1 NMatS0=  32385 NMatT0=    0 NMatD0=    1 NMtDS0=    0 NMtDT0=    0
 Petite list used in FoFCou.
 CIDS: In Core Option IDoMem=           1.
 Coupled Cluster theory with single and double substitutions
 ===========================================================
 Iterations=  50 Convergence= 0.100D-07
 Produce multiple copies of IABC intergrals
 Iteration Nr.   1
 **********************
 DD1Dir will call FoFMem   1 times, MxPair=         6
 NAB=     3 NAA=     0 NBB=     0.
 MP4(R+Q)=  0.42994037D-03
 Maximum subspace dimension=  5
 A-vector RMS=  2.1770258D-04 Max=  2.2363361D-03 conv= 1.00D-06.
 RLE energy=       -0.0824876212
 E3=       -0.78389792D-02        EUMP3=      -0.58031716252D+01
 E4(DQ)=   -0.15755231D-02        UMP4(DQ)=   -0.58047471483D+01
 E4(SDQ)=  -0.16114287D-02        UMP4(SDQ)=  -0.58047830539D+01
 VARIATIONAL ENERGIES WITH THE FIRST-ORDER WAVEFUNCTION:
 DE(Corr)= -0.81666660E-01 E(Corr)=     -5.8027408480    
 NORM(A)=   0.10076350D+01
 Iteration Nr.   2
 **********************
 DD1Dir will call FoFMem   1 times, MxPair=         6
 NAB=     3 NAA=     0 NBB=     0.
 A-vector RMS=  1.0985632D-04 Max=  6.7903350D-04 conv= 1.00D-06.
 RLE energy=       -0.0840620761
 DE(Corr)= -0.83739345E-01 E(CORR)=     -5.8048135323     Delta=-2.07D-03
 NORM(A)=   0.10080588D+01
 Iteration Nr.   3
 **********************
 DD1Dir will call FoFMem   1 times, MxPair=         6
 NAB=     3 NAA=     0 NBB=     0.
 A-vector RMS=  4.2485859D-05 Max=  2.7755322D-04 conv= 1.00D-06.
 RLE energy=       -0.0840755235
 DE(Corr)= -0.84056821E-01 E(CORR)=     -5.8051310090     Delta=-3.17D-04
 NORM(A)=   0.10080883D+01
 Iteration Nr.   4
 **********************
 DD1Dir will call FoFMem   1 times, MxPair=         6
 NAB=     3 NAA=     0 NBB=     0.
 A-vector RMS=  7.5572099D-06 Max=  4.5373004D-05 conv= 1.00D-06.
 RLE energy=       -0.0840785844
 DE(Corr)= -0.84077323E-01 E(CORR)=     -5.8051515109     Delta=-2.05D-05
 NORM(A)=   0.10080942D+01
 Iteration Nr.   5
 **********************
 DD1Dir will call FoFMem   1 times, MxPair=         6
 NAB=     3 NAA=     0 NBB=     0.
 A-vector RMS=  1.3027443D-06 Max=  9.2894577D-06 conv= 1.00D-06.
 RLE energy=       -0.0840785762
 DE(Corr)= -0.84078477E-01 E(CORR)=     -5.8051526646     Delta=-1.15D-06
 NORM(A)=   0.10080944D+01
 Iteration Nr.   6
 **********************
 DD1Dir will call FoFMem   1 times, MxPair=         6
 NAB=     3 NAA=     0 NBB=     0.
 A-vector RMS=  1.7456490D-07 Max=  1.2253341D-06 conv= 1.00D-06.
 RLE energy=       -0.0840784745
 DE(Corr)= -0.84078508E-01 E(CORR)=     -5.8051526957     Delta=-3.11D-08
 NORM(A)=   0.10080944D+01
 Iteration Nr.   7
 **********************
 DD1Dir will call FoFMem   1 times, MxPair=         6
 NAB=     3 NAA=     0 NBB=     0.
 A-vector RMS=  4.1115303D-08 Max=  2.6954129D-07 conv= 1.00D-06.
 RLE energy=       -0.0840784846
 DE(Corr)= -0.84078492E-01 E(CORR)=     -5.8051526801     Delta= 1.55D-08
 NORM(A)=   0.10080944D+01
 Iteration Nr.   8
 **********************
 DD1Dir will call FoFMem   1 times, MxPair=         6
 NAB=     3 NAA=     0 NBB=     0.
 A-vector RMS=  1.0368626D-08 Max=  7.5420904D-08 conv= 1.00D-06.
 RLE energy=       -0.0840784922
 DE(Corr)= -0.84078492E-01 E(CORR)=     -5.8051526794     Delta= 7.57D-10
 NORM(A)=   0.10080944D+01
 CI/CC converged in    8 iterations to DelEn= 7.57D-10 Conv= 1.00D-08 ErrA1= 1.04D-08 Conv= 1.00D-06
 Wavefunction amplitudes converged. E(Corr)=     -5.8051526794    
 Largest amplitude= 1.46D-02

 Z-amplitude iterations

 Iteration Nr.   1
 **********************
 DD1Dir will call FoFMem   1 times, MxPair=         6
 NAB=     3 NAA=     0 NBB=     0.
 A-vector RMS=  7.6456905D-06 Max=  1.0763865D-04 conv= 1.00D-06.
 RLE energy=       -0.0841005758
 DE(Z)= -0.83460448E-01 E(Z)=     -5.8045346361     Delta= 6.18D-04
 NORM(A)=   0.10080987D+01
 Iteration Nr.   2
 **********************
 DD1Dir will call FoFMem   1 times, MxPair=         6
 NAB=     3 NAA=     0 NBB=     0.
 A-vector RMS=  7.8491604D-06 Max=  1.1092627D-04 conv= 1.00D-06.
 RLE energy=       -0.0839967971
 DE(Z)= -0.83462874E-01 E(Z)=     -5.8045370615     Delta=-2.43D-06
 NORM(A)=   0.10080785D+01
 Iteration Nr.   3
 **********************
 DD1Dir will call FoFMem   1 times, MxPair=         6
 NAB=     3 NAA=     0 NBB=     0.
 A-vector RMS=  6.7793320D-06 Max=  9.5132784D-05 conv= 1.00D-06.
 RLE energy=       -0.0844436048
 DE(Z)= -0.83451457E-01 E(Z)=     -5.8045256449     Delta= 1.14D-05
 NORM(A)=   0.10081655D+01
 Iteration Nr.   4
 **********************
 DD1Dir will call FoFMem   1 times, MxPair=         6
 NAB=     3 NAA=     0 NBB=     0.
 A-vector RMS=  1.1642624D-05 Max=  1.6405559D-04 conv= 1.00D-06.
 RLE energy=       -0.0838620678
 DE(Z)= -0.83500668E-01 E(Z)=     -5.8045748562     Delta=-4.92D-05
 NORM(A)=   0.10080524D+01
 Iteration Nr.   5
 **********************
 DD1Dir will call FoFMem   1 times, MxPair=         6
 NAB=     3 NAA=     0 NBB=     0.
 A-vector RMS=  5.2651475D-06 Max=  7.4103452D-05 conv= 1.00D-06.
 RLE energy=       -0.0833839190
 DE(Z)= -0.83436603E-01 E(Z)=     -5.8045107909     Delta= 6.41D-05
 NORM(A)=   0.10079600D+01
 Iteration Nr.   6
 **********************
 DD1Dir will call FoFMem   1 times, MxPair=         6
 NAB=     3 NAA=     0 NBB=     0.
 A-vector RMS=  2.3513095D-09 Max=  1.4205965D-08 conv= 1.00D-06.
 RLE energy=       -0.0833839185
 DE(Z)= -0.83383919E-01 E(Z)=     -5.8044581066     Delta= 5.27D-05
 NORM(A)=   0.10079600D+01
 Iteration Nr.   7
 **********************
 DD1Dir will call FoFMem   1 times, MxPair=         6
 NAB=     3 NAA=     0 NBB=     0.
 A-vector RMS=  3.7472015D-10 Max=  3.6394708D-09 conv= 1.00D-06.
 RLE energy=       -0.0833839185
 DE(Z)= -0.83383919E-01 E(Z)=     -5.8044581063     Delta= 3.02D-10
 NORM(A)=   0.10079600D+01
 CI/CC converged in    7 iterations to DelEn= 3.02D-10 Conv= 1.00D-08 ErrA1= 3.75D-10 Conv= 1.00D-06
 Z-amplitudes converged.
 Discarding MO integrals.
 Unit  1 TFree=       4197801 TCopy=        116892.
 Selected functions:
 Compute CCSD 2PDM.
 Form Post-SCF non-separable gradient here.
 IO1PDM=    0 IOW=    0 IO2PDM=    0.
 MDV=   10737418240.
 Minotr:  Closed shell wavefunction.
          Computing CCSD/QCISD derivatives.
          Using Z-Vector for PSCF gradient.
          Skipping F1 and S1 gradient terms here.
          IDoAtm=11
          Direct CPHF calculation.
          Differentiating once with respect to electric field.
                with respect to dipole field.
          Differentiating once with respect to nuclear coordinates.
          Using symmetry in CPHF.
          Requested convergence is 1.0D-10 RMS, and 1.0D-09 maximum.
          NewPWx=F KeepS1=T KeepF1=T KeepIn=T MapXYZ=F SortEE=F KeepMc=T.
 Keep R1 ints in memory in symmetry-blocked form, NReq=623334411.
 FoFCou: FMM=F IPFlag=           0 FMFlag=           0 FMFlg1=           0
         NFxFlg=           0 DoJE=F BraDBF=F KetDBF=F FulRan=T
         wScrn=  0.000000 ICntrl=       600 IOpCl=  0 I1Cent=           0 NGrid=           0
         NMat0=    1 NMatS0=  32385 NMatT0=    0 NMatD0=    1 NMtDS0=    0 NMtDT0=    0
 Petite list used in FoFCou.
          MDV=   10737418240 using IRadAn=  999974.
          Solving linear equations separately, MaxMat=       0.
          There are     1 degrees of freedom in the 1st order CPHF.  IDoFFX=0 NUNeed=     1.
 LinEq1:  Iter=  0 NonCon=     1 RMS=4.40D-04 Max=3.89D-03 NDo=     1
 AX will form     1 AO Fock derivatives at one time.
 LinEq1:  Iter=  1 NonCon=     1 RMS=4.88D-05 Max=4.92D-04 NDo=     1
 LinEq1:  Iter=  2 NonCon=     1 RMS=1.33D-06 Max=1.56D-05 NDo=     1
 LinEq1:  Iter=  3 NonCon=     1 RMS=4.19D-08 Max=4.00D-07 NDo=     1
 LinEq1:  Iter=  4 NonCon=     1 RMS=1.76D-09 Max=1.47D-08 NDo=     1
 LinEq1:  Iter=  5 NonCon=     1 RMS=1.24D-10 Max=1.13D-09 NDo=     1
 LinEq1:  Iter=  6 NonCon=     0 RMS=6.97D-12 Max=8.20D-11 NDo=     1
 Linear equations converged to 1.000D-10 1.000D-09 after     6 iterations.
 End of Minotr F.D. properties file   721 does not exist.
 End of Minotr F.D. properties file   722 does not exist.
 End of Minotr F.D. properties file   788 does not exist.
 Copying SCF densities to generalized density rwf, IOpCl= 0 IROHF=0.

 **********************************************************************

            Population analysis using the QCI/CC density.

 **********************************************************************

 Orbital symmetries:
       Occupied  (SGG) (SGU)
       Virtual   (SGG) (SGU) (PIU) (PIU) (SGG) (PIG) (PIG) (SGU)
                 (SGG) (SGU) (DLTG) (DLTG) (PIU) (PIU) (SGG) (DLTU)
                 (DLTU) (SGU) (PIU) (PIU) (PIG) (PIG) (PIG) (PIG)
                 (SGG) (SGU) (SGG) (DLTG) (DLTG) (PHIU) (PHIU)
                 (SGU) (PHIG) (PHIG) (PIU) (PIU) (DLTU) (DLTU)
                 (SGG) (SGU) (PIG) (PIG) (DLTG) (DLTG) (PIU) (PIU)
                 (DLTU) (DLTU) (PIG) (PIG) (SGG) (PIU) (PIU) (SGU)
                 (SGG) (PIG) (PIG) (DLTG) (DLTG) (PHIU) (PHIU)
                 (?A) (?A) (?B) (?B) (PIU) (PIU) (PHIG) (PHIG)
                 (SGU) (SGG) (DLTU) (DLTU) (SGU) (PIG) (PIG) (SGG)
                 (SGU) (PIU) (PIU) (PHIU) (PHIU) (DLTG) (DLTG)
                 (PHIG) (PHIG) (SGU) (SGG) (DLTU) (DLTU) (DLTG)
                 (DLTG) (PHIU) (PHIU) (PIG) (PIG) (?A) (?A) (?C)
                 (?C) (?D) (?D) (?B) (?B) (PIU) (PIU) (PHIG) (PHIG)
                 (SGG) (SGU) (PIG) (PIG) (DLTU) (DLTU) (DLTG) (DLTG)
                 (DLTU) (DLTU) (PIU) (PIU) (SGG) (PIG) (PIG) (PIU)
                 (PIU) (SGU) (PIG) (PIG) (SGG) (SGU) (PHIU) (PHIU)
                 (DLTG) (DLTG) (?A) (?A) (?B) (?B) (PHIG) (PHIG)
                 (PIU) (PIU) (SGU) (DLTU) (DLTU) (SGG) (PIG) (PIG)
                 (SGG) (SGU) (PHIU) (PHIU) (DLTG) (DLTG) (PHIG)
                 (PHIG) (DLTU) (DLTU) (SGU) (PIU) (PIU) (PIG) (PIG)
                 (SGG) (DLTG) (DLTG) (DLTU) (DLTU) (PIU) (PIU)
                 (SGG) (PIG) (PIG) (SGU) (PIU) (PIU) (PIG) (PIG)
                 (SGG) (SGU) (DLTG) (DLTG) (PHIU) (PHIU) (PIU)
                 (PIU) (?A) (?A) (?C) (?C) (?D) (?D) (SGG) (?B)
                 (?B) (PHIG) (PHIG) (DLTU) (DLTU) (SGU) (PIG) (PIG)
                 (DLTG) (DLTG) (PHIU) (PHIU) (?A) (?A) (?B) (?B)
                 (PHIG) (PHIG) (PIU) (PIU) (DLTU) (DLTU) (SGU)
                 (SGG) (PIG) (PIG) (PHIU) (PHIU) (DLTG) (DLTG)
                 (PHIG) (PHIG) (DLTU) (DLTU) (SGU) (PIU) (PIU)
                 (PIG) (PIG) (SGG) (SGG) (SGU) (DLTG) (DLTG) (DLTU)
                 (DLTU) (PIU) (PIU) (SGG) (PIG) (PIG) (SGU) (PIU)
                 (PIU) (PIG) (PIG) (SGG) (SGU)
 The electronic state is 1-SGG.
     Natural Orbital Coefficients:
                           1         2         3         4         5
     Eigenvalues --     1.98432   1.98348   0.00831   0.00671   0.00273
   1 1   He 1S          0.69741   0.72361  -1.14455   1.17729  -0.10644
   2        2S          0.00027   0.00038  -0.05873   0.06630  -0.00790
   3        3S         -0.00007   0.00038  -0.16830   0.18325  -0.01833
   4        4S         -0.00331  -0.00179   0.24579  -0.27908   0.03498
   5        5S         -0.00407   0.00094   0.86842  -0.97856   0.10172
   6        6S         -0.00301   0.00589   0.33760  -0.40774   0.04648
   7        7S          0.00052   0.00079   0.00200  -0.00404   0.00035
   8        8PX         0.00000  -0.00000  -0.00000   0.00000   0.00000
   9        8PY        -0.00000   0.00000  -0.00000  -0.00000   0.00000
  10        8PZ        -0.00002   0.00002  -0.00025  -0.00039   0.00592
  11        9PX         0.00000   0.00000   0.00000   0.00000   0.00000
  12        9PY         0.00000  -0.00000   0.00000   0.00000  -0.00000
  13        9PZ        -0.00005   0.00005  -0.00097  -0.00214   0.02748
  14       10PX        -0.00000  -0.00000  -0.00000  -0.00000  -0.00000
  15       10PY        -0.00000   0.00000  -0.00000  -0.00000   0.00000
  16       10PZ        -0.00023   0.00022  -0.00663  -0.01147   0.17626
  17       11PX        -0.00000  -0.00000  -0.00000  -0.00000  -0.00000
  18       11PY         0.00000  -0.00000   0.00000   0.00000  -0.00000
  19       11PZ        -0.00072   0.00065  -0.01471  -0.03204   0.36829
  20       12PX         0.00000   0.00000   0.00000   0.00000   0.00000
  21       12PY        -0.00000   0.00000  -0.00000  -0.00000   0.00000
  22       12PZ        -0.00136   0.00128  -0.01039  -0.01676   0.19680
  23       13PX        -0.00000  -0.00000  -0.00000  -0.00000  -0.00000
  24       13PY        -0.00000   0.00000  -0.00000  -0.00000   0.00000
  25       13PZ        -0.00009  -0.00011  -0.00032   0.00273   0.01037
  26       14D 0       -0.00000   0.00000   0.00000   0.00004   0.00003
  27       14D+1        0.00000   0.00000   0.00000   0.00000  -0.00000
  28       14D-1        0.00000  -0.00000   0.00000   0.00000  -0.00000
  29       14D+2       -0.00000   0.00000   0.00000   0.00000   0.00000
  30       14D-2       -0.00000   0.00000   0.00000   0.00000   0.00000
  31       15D 0        0.00002  -0.00002   0.00004  -0.00011  -0.00025
  32       15D+1        0.00000   0.00000   0.00000  -0.00000   0.00000
  33       15D-1       -0.00000   0.00000  -0.00000  -0.00000   0.00000
  34       15D+2        0.00000  -0.00000  -0.00000  -0.00000  -0.00000
  35       15D-2       -0.00000   0.00000  -0.00000   0.00000   0.00000
  36       16D 0        0.00003  -0.00003   0.00019   0.00082   0.00011
  37       16D+1       -0.00000  -0.00000  -0.00000  -0.00000  -0.00000
  38       16D-1        0.00000  -0.00000   0.00000   0.00000  -0.00000
  39       16D+2        0.00000   0.00000   0.00000   0.00000   0.00000
  40       16D-2        0.00000   0.00000  -0.00000  -0.00000   0.00000
  41       17D 0        0.00030  -0.00026   0.00082   0.00073  -0.00350
  42       17D+1        0.00000   0.00000   0.00000   0.00000  -0.00000
  43       17D-1       -0.00000   0.00000  -0.00000  -0.00000   0.00000
  44       17D+2       -0.00000   0.00000  -0.00000   0.00000  -0.00000
  45       17D-2       -0.00000   0.00000  -0.00000  -0.00000   0.00000
  46       18D 0        0.00037  -0.00016   0.00085  -0.00238  -0.00481
  47       18D+1        0.00000  -0.00000  -0.00000  -0.00000  -0.00000
  48       18D-1        0.00000  -0.00000   0.00000   0.00000  -0.00000
  49       18D+2        0.00000  -0.00000   0.00000  -0.00000  -0.00000
  50       18D-2        0.00000  -0.00000   0.00000   0.00000   0.00000
  51       19F 0       -0.00000   0.00000   0.00001   0.00000   0.00002
  52       19F+1       -0.00000  -0.00000  -0.00000  -0.00000  -0.00000
  53       19F-1        0.00000  -0.00000   0.00000   0.00000  -0.00000
  54       19F+2        0.00000   0.00000  -0.00000   0.00000  -0.00000
  55       19F-2        0.00000  -0.00000  -0.00000  -0.00000  -0.00000
  56       19F+3       -0.00000   0.00000   0.00000  -0.00000  -0.00000
  57       19F-3        0.00000  -0.00000   0.00000   0.00000  -0.00000
  58       20F 0        0.00000   0.00000  -0.00004  -0.00001  -0.00004
  59       20F+1        0.00000   0.00000   0.00000   0.00000   0.00000
  60       20F-1       -0.00000   0.00000  -0.00000  -0.00000   0.00000
  61       20F+2        0.00000  -0.00000   0.00000  -0.00000   0.00000
  62       20F-2       -0.00000   0.00000  -0.00000  -0.00000  -0.00000
  63       20F+3        0.00000  -0.00000  -0.00000   0.00000   0.00000
  64       20F-3       -0.00000   0.00000  -0.00000  -0.00000   0.00000
  65       21F 0       -0.00003   0.00003   0.00000  -0.00022   0.00036
  66       21F+1        0.00000  -0.00000  -0.00000   0.00000  -0.00000
  67       21F-1        0.00000  -0.00000   0.00000   0.00000  -0.00000
  68       21F+2       -0.00000  -0.00000  -0.00000   0.00000  -0.00000
  69       21F-2        0.00000   0.00000   0.00000  -0.00000  -0.00000
  70       21F+3       -0.00000   0.00000   0.00000  -0.00000  -0.00000
  71       21F-3        0.00000  -0.00000   0.00000   0.00000  -0.00000
  72       22F 0       -0.00014   0.00004  -0.00020   0.00172   0.00337
  73       22F+1       -0.00000   0.00000  -0.00000  -0.00000  -0.00000
  74       22F-1       -0.00000   0.00000  -0.00000  -0.00000   0.00000
  75       22F+2       -0.00000   0.00000   0.00000  -0.00000   0.00000
  76       22F-2       -0.00000   0.00000  -0.00000  -0.00000  -0.00000
  77       22F+3        0.00000  -0.00000  -0.00000   0.00000   0.00000
  78       22F-3       -0.00000   0.00000  -0.00000  -0.00000   0.00000
  79       23G 0        0.00000   0.00000   0.00001  -0.00002  -0.00002
  80       23G+1        0.00000   0.00000   0.00000   0.00000   0.00000
  81       23G-1        0.00000  -0.00000   0.00000   0.00000  -0.00000
  82       23G+2       -0.00000  -0.00000  -0.00000   0.00000  -0.00000
  83       23G-2        0.00000  -0.00000   0.00000   0.00000   0.00000
  84       23G+3        0.00000  -0.00000  -0.00000   0.00000   0.00000
  85       23G-3        0.00000   0.00000  -0.00000  -0.00000   0.00000
  86       23G+4       -0.00000  -0.00000   0.00000  -0.00000   0.00000
  87       23G-4        0.00000   0.00000  -0.00000   0.00000   0.00000
  88       24G 0        0.00000  -0.00000  -0.00003   0.00011   0.00013
  89       24G+1       -0.00000   0.00000  -0.00000  -0.00000  -0.00000
  90       24G-1       -0.00000   0.00000  -0.00000  -0.00000   0.00000
  91       24G+2       -0.00000   0.00000   0.00000   0.00000   0.00000
  92       24G-2       -0.00000   0.00000   0.00000   0.00000   0.00000
  93       24G+3       -0.00000   0.00000   0.00000  -0.00000  -0.00000
  94       24G-3       -0.00000  -0.00000   0.00000   0.00000  -0.00000
  95       24G+4        0.00000   0.00000  -0.00000   0.00000   0.00000
  96       24G-4       -0.00000  -0.00000   0.00000  -0.00000  -0.00000
  97       25G 0        0.00005  -0.00001   0.00010  -0.00078  -0.00166
  98       25G+1        0.00000  -0.00000   0.00000   0.00000   0.00000
  99       25G-1        0.00000  -0.00000   0.00000   0.00000  -0.00000
 100       25G+2        0.00000  -0.00000  -0.00000   0.00000  -0.00000
 101       25G-2        0.00000  -0.00000   0.00000   0.00000   0.00000
 102       25G+3        0.00000  -0.00000  -0.00000   0.00000   0.00000
 103       25G-3        0.00000  -0.00000  -0.00000  -0.00000  -0.00000
 104       25G+4       -0.00000  -0.00000   0.00000   0.00000   0.00000
 105       25G-4        0.00000   0.00000   0.00000   0.00000  -0.00000
 106       26H 0        0.00000  -0.00000   0.00001  -0.00001  -0.00003
 107       26H+1        0.00000  -0.00000  -0.00000   0.00000   0.00000
 108       26H-1        0.00000  -0.00000   0.00000   0.00000  -0.00000
 109       26H+2       -0.00000  -0.00000   0.00000   0.00000   0.00000
 110       26H-2        0.00000  -0.00000  -0.00000   0.00000   0.00000
 111       26H+3        0.00000  -0.00000  -0.00000  -0.00000   0.00000
 112       26H-3       -0.00000   0.00000  -0.00000  -0.00000   0.00000
 113       26H+4       -0.00000  -0.00000  -0.00000  -0.00000  -0.00000
 114       26H-4        0.00000   0.00000  -0.00000   0.00000   0.00000
 115       26H+5        0.00000   0.00000   0.00000  -0.00000   0.00000
 116       26H-5       -0.00000   0.00000  -0.00000  -0.00000   0.00000
 117       27H 0       -0.00004   0.00002  -0.00015   0.00014   0.00057
 118       27H+1       -0.00000   0.00000   0.00000  -0.00000   0.00000
 119       27H-1       -0.00000   0.00000  -0.00000  -0.00000   0.00000
 120       27H+2       -0.00000   0.00000  -0.00000  -0.00000   0.00000
 121       27H-2        0.00000   0.00000  -0.00000  -0.00000   0.00000
 122       27H+3       -0.00000   0.00000   0.00000   0.00000  -0.00000
 123       27H-3        0.00000  -0.00000   0.00000   0.00000  -0.00000
 124       27H+4        0.00000  -0.00000  -0.00000  -0.00000  -0.00000
 125       27H-4       -0.00000  -0.00000   0.00000  -0.00000  -0.00000
 126       27H+5        0.00000   0.00000  -0.00000   0.00000  -0.00000
 127       27H-5        0.00000  -0.00000   0.00000   0.00000  -0.00000
 128 2   He 1S          0.69741  -0.72361  -1.14455  -1.17729  -0.10644
 129        2S          0.00027  -0.00038  -0.05873  -0.06630  -0.00790
 130        3S         -0.00007  -0.00038  -0.16830  -0.18325  -0.01833
 131        4S         -0.00331   0.00179   0.24579   0.27908   0.03498
 132        5S         -0.00407  -0.00094   0.86842   0.97856   0.10172
 133        6S         -0.00301  -0.00589   0.33760   0.40774   0.04648
 134        7S          0.00052  -0.00079   0.00200   0.00404   0.00035
 135        8PX         0.00000  -0.00000  -0.00000   0.00000   0.00000
 136        8PY         0.00000  -0.00000   0.00000   0.00000  -0.00000
 137        8PZ         0.00002   0.00002   0.00025  -0.00039  -0.00592
 138        9PX         0.00000   0.00000   0.00000   0.00000   0.00000
 139        9PY        -0.00000   0.00000  -0.00000  -0.00000   0.00000
 140        9PZ         0.00005   0.00005   0.00097  -0.00214  -0.02748
 141       10PX        -0.00000  -0.00000  -0.00000  -0.00000  -0.00000
 142       10PY         0.00000  -0.00000   0.00000   0.00000  -0.00000
 143       10PZ         0.00023   0.00022   0.00663  -0.01147  -0.17626
 144       11PX        -0.00000  -0.00000  -0.00000  -0.00000  -0.00000
 145       11PY        -0.00000   0.00000  -0.00000  -0.00000   0.00000
 146       11PZ         0.00072   0.00065   0.01471  -0.03204  -0.36829
 147       12PX         0.00000   0.00000   0.00000   0.00000   0.00000
 148       12PY         0.00000  -0.00000   0.00000   0.00000  -0.00000
 149       12PZ         0.00136   0.00128   0.01039  -0.01676  -0.19680
 150       13PX        -0.00000  -0.00000  -0.00000  -0.00000  -0.00000
 151       13PY         0.00000  -0.00000   0.00000   0.00000  -0.00000
 152       13PZ         0.00009  -0.00011   0.00032   0.00273  -0.01037
 153       14D 0       -0.00000  -0.00000   0.00000  -0.00004   0.00003
 154       14D+1       -0.00000  -0.00000  -0.00000  -0.00000   0.00000
 155       14D-1       -0.00000   0.00000  -0.00000   0.00000   0.00000
 156       14D+2       -0.00000  -0.00000   0.00000  -0.00000   0.00000
 157       14D-2       -0.00000  -0.00000   0.00000   0.00000   0.00000
 158       15D 0        0.00002   0.00002   0.00004   0.00011  -0.00025
 159       15D+1       -0.00000  -0.00000  -0.00000   0.00000  -0.00000
 160       15D-1        0.00000  -0.00000   0.00000  -0.00000  -0.00000
 161       15D+2        0.00000   0.00000  -0.00000   0.00000  -0.00000
 162       15D-2        0.00000   0.00000   0.00000   0.00000   0.00000
 163       16D 0        0.00003   0.00003   0.00019  -0.00082   0.00011
 164       16D+1        0.00000   0.00000   0.00000   0.00000   0.00000
 165       16D-1        0.00000  -0.00000   0.00000   0.00000   0.00000
 166       16D+2        0.00000  -0.00000   0.00000  -0.00000   0.00000
 167       16D-2       -0.00000   0.00000  -0.00000  -0.00000   0.00000
 168       17D 0        0.00030   0.00026   0.00082  -0.00073  -0.00350
 169       17D+1       -0.00000  -0.00000  -0.00000  -0.00000   0.00000
 170       17D-1       -0.00000   0.00000  -0.00000  -0.00000   0.00000
 171       17D+2       -0.00000  -0.00000  -0.00000  -0.00000  -0.00000
 172       17D-2       -0.00000  -0.00000  -0.00000  -0.00000   0.00000
 173       18D 0        0.00037   0.00016   0.00085   0.00238  -0.00481
 174       18D+1        0.00000  -0.00000   0.00000   0.00000   0.00000
 175       18D-1        0.00000  -0.00000   0.00000   0.00000  -0.00000
 176       18D+2        0.00000   0.00000   0.00000   0.00000  -0.00000
 177       18D-2       -0.00000   0.00000   0.00000   0.00000   0.00000
 178       19F 0        0.00000   0.00000  -0.00001   0.00000  -0.00002
 179       19F+1       -0.00000  -0.00000  -0.00000  -0.00000  -0.00000
 180       19F-1       -0.00000   0.00000  -0.00000  -0.00000   0.00000
 181       19F+2       -0.00000   0.00000   0.00000   0.00000   0.00000
 182       19F-2        0.00000   0.00000   0.00000   0.00000   0.00000
 183       19F+3       -0.00000   0.00000   0.00000  -0.00000  -0.00000
 184       19F-3       -0.00000   0.00000  -0.00000  -0.00000   0.00000
 185       20F 0       -0.00000   0.00000   0.00004  -0.00001   0.00004
 186       20F+1        0.00000   0.00000   0.00000   0.00000   0.00000
 187       20F-1        0.00000  -0.00000   0.00000   0.00000  -0.00000
 188       20F+2       -0.00000  -0.00000  -0.00000  -0.00000  -0.00000
 189       20F-2       -0.00000  -0.00000  -0.00000   0.00000   0.00000
 190       20F+3        0.00000  -0.00000  -0.00000   0.00000   0.00000
 191       20F-3        0.00000  -0.00000  -0.00000   0.00000  -0.00000
 192       21F 0        0.00003   0.00003  -0.00000  -0.00022  -0.00036
 193       21F+1       -0.00000   0.00000  -0.00000  -0.00000  -0.00000
 194       21F-1       -0.00000   0.00000  -0.00000  -0.00000   0.00000
 195       21F+2        0.00000  -0.00000   0.00000   0.00000   0.00000
 196       21F-2       -0.00000  -0.00000  -0.00000  -0.00000   0.00000
 197       21F+3       -0.00000   0.00000   0.00000  -0.00000  -0.00000
 198       21F-3       -0.00000   0.00000   0.00000  -0.00000   0.00000
 199       22F 0        0.00014   0.00004   0.00020   0.00172  -0.00337
 200       22F+1        0.00000  -0.00000   0.00000   0.00000  -0.00000
 201       22F-1        0.00000  -0.00000   0.00000   0.00000  -0.00000
 202       22F+2        0.00000   0.00000  -0.00000  -0.00000  -0.00000
 203       22F-2       -0.00000   0.00000  -0.00000   0.00000   0.00000
 204       22F+3        0.00000  -0.00000  -0.00000   0.00000   0.00000
 205       22F-3        0.00000  -0.00000  -0.00000   0.00000  -0.00000
 206       23G 0        0.00000  -0.00000   0.00001   0.00002  -0.00002
 207       23G+1       -0.00000  -0.00000  -0.00000  -0.00000  -0.00000
 208       23G-1        0.00000  -0.00000   0.00000   0.00000  -0.00000
 209       23G+2       -0.00000   0.00000  -0.00000  -0.00000  -0.00000
 210       23G-2       -0.00000   0.00000   0.00000   0.00000   0.00000
 211       23G+3       -0.00000   0.00000   0.00000  -0.00000  -0.00000
 212       23G-3        0.00000  -0.00000  -0.00000   0.00000   0.00000
 213       23G+4        0.00000  -0.00000   0.00000   0.00000   0.00000
 214       23G-4       -0.00000   0.00000  -0.00000   0.00000   0.00000
 215       24G 0        0.00000   0.00000  -0.00003  -0.00011   0.00013
 216       24G+1        0.00000   0.00000   0.00000   0.00000   0.00000
 217       24G-1       -0.00000   0.00000  -0.00000  -0.00000   0.00000
 218       24G+2       -0.00000  -0.00000   0.00000  -0.00000   0.00000
 219       24G-2        0.00000  -0.00000   0.00000   0.00000   0.00000
 220       24G+3        0.00000  -0.00000  -0.00000   0.00000   0.00000
 221       24G-3        0.00000  -0.00000   0.00000  -0.00000  -0.00000
 222       24G+4        0.00000   0.00000  -0.00000  -0.00000   0.00000
 223       24G-4        0.00000  -0.00000   0.00000  -0.00000  -0.00000
 224       25G 0        0.00005   0.00001   0.00010   0.00078  -0.00166
 225       25G+1        0.00000  -0.00000  -0.00000  -0.00000  -0.00000
 226       25G-1        0.00000  -0.00000   0.00000   0.00000  -0.00000
 227       25G+2        0.00000   0.00000  -0.00000  -0.00000  -0.00000
 228       25G-2       -0.00000   0.00000  -0.00000   0.00000   0.00000
 229       25G+3       -0.00000   0.00000   0.00000  -0.00000  -0.00000
 230       25G-3        0.00000  -0.00000  -0.00000   0.00000   0.00000
 231       25G+4       -0.00000   0.00000   0.00000  -0.00000   0.00000
 232       25G-4       -0.00000   0.00000  -0.00000  -0.00000  -0.00000
 233       26H 0       -0.00000  -0.00000  -0.00001  -0.00001   0.00003
 234       26H+1       -0.00000   0.00000  -0.00000   0.00000   0.00000
 235       26H-1       -0.00000   0.00000  -0.00000  -0.00000   0.00000
 236       26H+2        0.00000  -0.00000  -0.00000   0.00000  -0.00000
 237       26H-2       -0.00000   0.00000   0.00000   0.00000  -0.00000
 238       26H+3        0.00000  -0.00000  -0.00000  -0.00000   0.00000
 239       26H-3        0.00000  -0.00000   0.00000  -0.00000  -0.00000
 240       26H+4        0.00000  -0.00000   0.00000  -0.00000   0.00000
 241       26H-4        0.00000   0.00000  -0.00000   0.00000  -0.00000
 242       26H+5        0.00000   0.00000   0.00000  -0.00000   0.00000
 243       26H-5        0.00000  -0.00000   0.00000   0.00000  -0.00000
 244       27H 0        0.00004   0.00002   0.00015   0.00014  -0.00057
 245       27H+1        0.00000  -0.00000   0.00000   0.00000  -0.00000
 246       27H-1        0.00000  -0.00000   0.00000   0.00000  -0.00000
 247       27H+2        0.00000   0.00000   0.00000  -0.00000  -0.00000
 248       27H-2       -0.00000   0.00000   0.00000  -0.00000  -0.00000
 249       27H+3       -0.00000   0.00000   0.00000   0.00000  -0.00000
 250       27H-3       -0.00000   0.00000  -0.00000   0.00000   0.00000
 251       27H+4       -0.00000  -0.00000   0.00000  -0.00000   0.00000
 252       27H-4        0.00000  -0.00000   0.00000  -0.00000  -0.00000
 253       27H+5        0.00000   0.00000  -0.00000   0.00000  -0.00000
 254       27H-5       -0.00000   0.00000  -0.00000  -0.00000   0.00000
                           6         7         8         9        10
     Eigenvalues --     0.00260   0.00260   0.00255   0.00255   0.00237
   1 1   He 1S          0.00000   0.00000  -0.00000  -0.00000   0.19689
   2        2S         -0.00000  -0.00000  -0.00000   0.00000   0.01503
   3        3S          0.00000   0.00000  -0.00000  -0.00000   0.03341
   4        4S         -0.00000  -0.00000   0.00000   0.00000  -0.07240
   5        5S         -0.00000  -0.00000   0.00000   0.00000  -0.18978
   6        6S          0.00000   0.00000  -0.00000  -0.00000  -0.07682
   7        7S          0.00000   0.00000  -0.00000  -0.00000  -0.00203
   8        8PX         0.00616   0.00000   0.00000   0.00624   0.00000
   9        8PY         0.00000   0.00616   0.00624  -0.00000  -0.00000
  10        8PZ        -0.00000  -0.00000   0.00000   0.00000   0.00646
  11        9PX         0.02870  -0.00000  -0.00000   0.02914  -0.00000
  12        9PY         0.00000   0.02870   0.02914  -0.00000   0.00000
  13        9PZ         0.00000   0.00000  -0.00000  -0.00000   0.03039
  14       10PX         0.18355   0.00000  -0.00000   0.18606   0.00000
  15       10PY         0.00000   0.18355   0.18606  -0.00000  -0.00000
  16       10PZ        -0.00000  -0.00000   0.00000  -0.00000   0.19279
  17       11PX         0.38062   0.00000   0.00000   0.38508   0.00000
  18       11PY         0.00000   0.38062   0.38508  -0.00000   0.00000
  19       11PZ         0.00000   0.00000  -0.00000  -0.00000   0.39482
  20       12PX         0.19637   0.00000   0.00000   0.19941  -0.00000
  21       12PY         0.00000   0.19637   0.19941  -0.00000  -0.00000
  22       12PZ        -0.00000  -0.00000   0.00000   0.00000   0.20843
  23       13PX         0.00877  -0.00000  -0.00000   0.01020   0.00000
  24       13PY         0.00000   0.00877   0.01020  -0.00000  -0.00000
  25       13PZ        -0.00000  -0.00000   0.00000   0.00000   0.01759
  26       14D 0       -0.00000   0.00000   0.00000   0.00000  -0.00001
  27       14D+1        0.00002   0.00000   0.00000   0.00001  -0.00000
  28       14D-1        0.00000   0.00002   0.00001  -0.00000   0.00000
  29       14D+2       -0.00000   0.00000  -0.00000   0.00000   0.00000
  30       14D-2       -0.00000  -0.00000   0.00000   0.00000   0.00000
  31       15D 0        0.00000  -0.00000  -0.00000   0.00000   0.00015
  32       15D+1       -0.00010  -0.00000   0.00000  -0.00002  -0.00000
  33       15D-1       -0.00000  -0.00010  -0.00002  -0.00000  -0.00000
  34       15D+2        0.00000  -0.00000   0.00000  -0.00000   0.00000
  35       15D-2        0.00000   0.00000  -0.00000  -0.00000   0.00000
  36       16D 0       -0.00000  -0.00000   0.00000   0.00000   0.00040
  37       16D+1        0.00017   0.00000  -0.00000   0.00025   0.00000
  38       16D-1       -0.00000   0.00017   0.00025  -0.00000   0.00000
  39       16D+2       -0.00000   0.00000  -0.00000   0.00000  -0.00000
  40       16D-2       -0.00000  -0.00000   0.00000   0.00000   0.00000
  41       17D 0        0.00000  -0.00000   0.00000   0.00000  -0.00087
  42       17D+1       -0.00143  -0.00000   0.00000  -0.00066  -0.00000
  43       17D-1        0.00000  -0.00143  -0.00066   0.00000  -0.00000
  44       17D+2        0.00000  -0.00000   0.00000  -0.00000   0.00000
  45       17D-2        0.00000   0.00000  -0.00000  -0.00000   0.00000
  46       18D 0        0.00000   0.00000  -0.00000  -0.00000  -0.00540
  47       18D+1       -0.00159   0.00000  -0.00000  -0.00179   0.00000
  48       18D-1       -0.00000  -0.00159  -0.00179   0.00000   0.00000
  49       18D+2       -0.00000   0.00000  -0.00000   0.00000  -0.00000
  50       18D-2       -0.00000  -0.00000   0.00000   0.00000   0.00000
  51       19F 0        0.00000   0.00000   0.00000  -0.00000  -0.00001
  52       19F+1        0.00001  -0.00000  -0.00000  -0.00000   0.00000
  53       19F-1       -0.00000   0.00001  -0.00000   0.00000   0.00000
  54       19F+2       -0.00000   0.00000  -0.00000   0.00000   0.00000
  55       19F-2       -0.00000  -0.00000   0.00000   0.00000  -0.00000
  56       19F+3       -0.00000  -0.00000  -0.00000  -0.00000  -0.00000
  57       19F-3       -0.00000  -0.00000  -0.00000   0.00000  -0.00000
  58       20F 0       -0.00000  -0.00000   0.00000   0.00000   0.00004
  59       20F+1       -0.00003   0.00000   0.00000   0.00000  -0.00000
  60       20F-1        0.00000  -0.00003   0.00000  -0.00000  -0.00000
  61       20F+2        0.00000  -0.00000   0.00000  -0.00000  -0.00000
  62       20F-2        0.00000   0.00000  -0.00000  -0.00000  -0.00000
  63       20F+3        0.00000  -0.00000   0.00000   0.00000   0.00000
  64       20F-3        0.00000   0.00000   0.00000  -0.00000  -0.00000
  65       21F 0        0.00000   0.00000  -0.00000  -0.00000   0.00007
  66       21F+1        0.00021  -0.00000  -0.00000   0.00004   0.00000
  67       21F-1       -0.00000   0.00021   0.00004  -0.00000   0.00000
  68       21F+2       -0.00000   0.00000  -0.00000   0.00000   0.00000
  69       21F-2       -0.00000  -0.00000   0.00000   0.00000  -0.00000
  70       21F+3       -0.00000   0.00000   0.00000  -0.00000  -0.00000
  71       21F-3       -0.00000  -0.00000  -0.00000   0.00000   0.00000
  72       22F 0       -0.00000  -0.00000   0.00000   0.00000   0.00138
  73       22F+1        0.00107   0.00000   0.00000   0.00100  -0.00000
  74       22F-1        0.00000   0.00107   0.00100  -0.00000  -0.00000
  75       22F+2        0.00000  -0.00000   0.00000  -0.00000  -0.00000
  76       22F-2        0.00000   0.00000  -0.00000  -0.00000  -0.00000
  77       22F+3        0.00000   0.00000  -0.00000   0.00000   0.00000
  78       22F-3        0.00000   0.00000  -0.00000   0.00000  -0.00000
  79       23G 0        0.00000   0.00000  -0.00000   0.00000   0.00002
  80       23G+1       -0.00001  -0.00000  -0.00000  -0.00000  -0.00000
  81       23G-1       -0.00000  -0.00001  -0.00000  -0.00000   0.00000
  82       23G+2       -0.00000   0.00000  -0.00000   0.00000   0.00000
  83       23G-2       -0.00000  -0.00000   0.00000   0.00000   0.00000
  84       23G+3        0.00000  -0.00000  -0.00000   0.00000   0.00000
  85       23G-3       -0.00000   0.00000   0.00000  -0.00000   0.00000
  86       23G+4       -0.00000  -0.00000   0.00000  -0.00000  -0.00000
  87       23G-4       -0.00000  -0.00000  -0.00000   0.00000   0.00000
  88       24G 0       -0.00000  -0.00000   0.00000   0.00000  -0.00009
  89       24G+1        0.00003   0.00000   0.00000   0.00001   0.00000
  90       24G-1        0.00000   0.00003   0.00001  -0.00000  -0.00000
  91       24G+2        0.00000  -0.00000   0.00000  -0.00000   0.00000
  92       24G-2        0.00000   0.00000  -0.00000  -0.00000   0.00000
  93       24G+3       -0.00000   0.00000   0.00000  -0.00000   0.00000
  94       24G-3        0.00000  -0.00000  -0.00000   0.00000   0.00000
  95       24G+4        0.00000   0.00000   0.00000  -0.00000   0.00000
  96       24G-4       -0.00000  -0.00000   0.00000   0.00000  -0.00000
  97       25G 0        0.00000   0.00000  -0.00000  -0.00000   0.00034
  98       25G+1       -0.00050   0.00000   0.00000  -0.00028  -0.00000
  99       25G-1       -0.00000  -0.00050  -0.00028   0.00000   0.00000
 100       25G+2       -0.00000   0.00000  -0.00000   0.00000  -0.00000
 101       25G-2       -0.00000  -0.00000   0.00000   0.00000   0.00000
 102       25G+3        0.00000  -0.00000  -0.00000   0.00000  -0.00000
 103       25G-3       -0.00000   0.00000   0.00000  -0.00000  -0.00000
 104       25G+4       -0.00000   0.00000   0.00000  -0.00000  -0.00000
 105       25G-4        0.00000   0.00000  -0.00000  -0.00000   0.00000
 106       26H 0        0.00000   0.00000  -0.00000  -0.00000   0.00003
 107       26H+1       -0.00002   0.00000  -0.00000   0.00001   0.00000
 108       26H-1       -0.00000  -0.00002   0.00001  -0.00000   0.00000
 109       26H+2       -0.00000   0.00000  -0.00000   0.00000   0.00000
 110       26H-2       -0.00000  -0.00000   0.00000   0.00000   0.00000
 111       26H+3       -0.00000   0.00000   0.00000  -0.00000  -0.00000
 112       26H-3       -0.00000  -0.00000  -0.00000   0.00000  -0.00000
 113       26H+4       -0.00000  -0.00000   0.00000   0.00000  -0.00000
 114       26H-4        0.00000  -0.00000  -0.00000   0.00000   0.00000
 115       26H+5        0.00000   0.00000  -0.00000   0.00000  -0.00000
 116       26H-5        0.00000  -0.00000  -0.00000   0.00000  -0.00000
 117       27H 0       -0.00000  -0.00000   0.00000   0.00000  -0.00038
 118       27H+1        0.00024   0.00000  -0.00000  -0.00003  -0.00000
 119       27H-1        0.00000   0.00024  -0.00003   0.00000  -0.00000
 120       27H+2        0.00000  -0.00000   0.00000  -0.00000  -0.00000
 121       27H-2        0.00000   0.00000  -0.00000  -0.00000   0.00000
 122       27H+3        0.00000  -0.00000  -0.00000  -0.00000  -0.00000
 123       27H-3        0.00000   0.00000  -0.00000   0.00000   0.00000
 124       27H+4       -0.00000  -0.00000   0.00000   0.00000  -0.00000
 125       27H-4       -0.00000  -0.00000   0.00000   0.00000   0.00000
 126       27H+5        0.00000   0.00000   0.00000   0.00000   0.00000
 127       27H-5       -0.00000  -0.00000  -0.00000   0.00000   0.00000
 128 2   He 1S         -0.00000  -0.00000  -0.00000   0.00000  -0.19689
 129        2S          0.00000   0.00000  -0.00000  -0.00000  -0.01503
 130        3S         -0.00000  -0.00000   0.00000   0.00000  -0.03341
 131        4S          0.00000   0.00000  -0.00000  -0.00000   0.07240
 132        5S          0.00000  -0.00000   0.00000   0.00000   0.18978
 133        6S         -0.00000  -0.00000   0.00000   0.00000   0.07682
 134        7S         -0.00000  -0.00000   0.00000   0.00000   0.00203
 135        8PX         0.00616   0.00000  -0.00000  -0.00624   0.00000
 136        8PY         0.00000   0.00616  -0.00624   0.00000   0.00000
 137        8PZ        -0.00000  -0.00000   0.00000  -0.00000   0.00646
 138        9PX         0.02870  -0.00000  -0.00000  -0.02914  -0.00000
 139        9PY         0.00000   0.02870  -0.02914   0.00000  -0.00000
 140        9PZ         0.00000   0.00000  -0.00000  -0.00000   0.03039
 141       10PX         0.18355   0.00000   0.00000  -0.18606   0.00000
 142       10PY         0.00000   0.18355  -0.18606   0.00000   0.00000
 143       10PZ        -0.00000  -0.00000   0.00000   0.00000   0.19279
 144       11PX         0.38062   0.00000   0.00000  -0.38508   0.00000
 145       11PY         0.00000   0.38062  -0.38508   0.00000  -0.00000
 146       11PZ         0.00000   0.00000  -0.00000  -0.00000   0.39482
 147       12PX         0.19637   0.00000  -0.00000  -0.19941  -0.00000
 148       12PY         0.00000   0.19637  -0.19941   0.00000   0.00000
 149       12PZ        -0.00000  -0.00000   0.00000   0.00000   0.20843
 150       13PX         0.00877   0.00000  -0.00000  -0.01020   0.00000
 151       13PY         0.00000   0.00877  -0.01020   0.00000   0.00000
 152       13PZ        -0.00000  -0.00000   0.00000   0.00000   0.01759
 153       14D 0        0.00000   0.00000   0.00000  -0.00000   0.00001
 154       14D+1       -0.00002  -0.00000   0.00000   0.00001   0.00000
 155       14D-1        0.00000  -0.00002   0.00001   0.00000  -0.00000
 156       14D+2        0.00000  -0.00000   0.00000  -0.00000  -0.00000
 157       14D-2        0.00000   0.00000  -0.00000  -0.00000   0.00000
 158       15D 0       -0.00000  -0.00000   0.00000   0.00000  -0.00015
 159       15D+1        0.00010   0.00000  -0.00000  -0.00002   0.00000
 160       15D-1       -0.00000   0.00010  -0.00002   0.00000   0.00000
 161       15D+2       -0.00000   0.00000  -0.00000   0.00000  -0.00000
 162       15D-2       -0.00000  -0.00000   0.00000   0.00000   0.00000
 163       16D 0        0.00000   0.00000  -0.00000  -0.00000  -0.00040
 164       16D+1       -0.00017  -0.00000   0.00000   0.00025  -0.00000
 165       16D-1        0.00000  -0.00017   0.00025  -0.00000  -0.00000
 166       16D+2        0.00000  -0.00000   0.00000  -0.00000   0.00000
 167       16D-2        0.00000   0.00000  -0.00000  -0.00000   0.00000
 168       17D 0       -0.00000  -0.00000   0.00000   0.00000   0.00087
 169       17D+1        0.00143   0.00000  -0.00000  -0.00066   0.00000
 170       17D-1        0.00000   0.00143  -0.00066   0.00000  -0.00000
 171       17D+2       -0.00000   0.00000  -0.00000   0.00000  -0.00000
 172       17D-2       -0.00000  -0.00000   0.00000   0.00000   0.00000
 173       18D 0       -0.00000  -0.00000   0.00000   0.00000   0.00540
 174       18D+1        0.00159  -0.00000  -0.00000  -0.00179  -0.00000
 175       18D-1       -0.00000   0.00159  -0.00179   0.00000   0.00000
 176       18D+2        0.00000  -0.00000   0.00000  -0.00000   0.00000
 177       18D-2        0.00000   0.00000  -0.00000  -0.00000   0.00000
 178       19F 0       -0.00000   0.00000   0.00000   0.00000  -0.00001
 179       19F+1        0.00001  -0.00000  -0.00000   0.00000   0.00000
 180       19F-1        0.00000   0.00001   0.00000  -0.00000  -0.00000
 181       19F+2       -0.00000   0.00000  -0.00000   0.00000   0.00000
 182       19F-2       -0.00000  -0.00000   0.00000   0.00000   0.00000
 183       19F+3       -0.00000  -0.00000  -0.00000   0.00000  -0.00000
 184       19F-3        0.00000  -0.00000   0.00000  -0.00000  -0.00000
 185       20F 0       -0.00000   0.00000  -0.00000   0.00000   0.00004
 186       20F+1       -0.00003   0.00000   0.00000  -0.00000  -0.00000
 187       20F-1       -0.00000  -0.00003  -0.00000  -0.00000   0.00000
 188       20F+2        0.00000  -0.00000   0.00000  -0.00000  -0.00000
 189       20F-2        0.00000   0.00000  -0.00000  -0.00000   0.00000
 190       20F+3        0.00000  -0.00000   0.00000  -0.00000   0.00000
 191       20F-3       -0.00000   0.00000  -0.00000   0.00000   0.00000
 192       21F 0        0.00000   0.00000  -0.00000  -0.00000   0.00007
 193       21F+1        0.00021  -0.00000  -0.00000  -0.00004   0.00000
 194       21F-1        0.00000   0.00021  -0.00004   0.00000  -0.00000
 195       21F+2       -0.00000   0.00000  -0.00000   0.00000   0.00000
 196       21F-2       -0.00000  -0.00000   0.00000   0.00000   0.00000
 197       21F+3       -0.00000   0.00000   0.00000   0.00000  -0.00000
 198       21F-3        0.00000  -0.00000   0.00000  -0.00000  -0.00000
 199       22F 0       -0.00000  -0.00000   0.00000   0.00000   0.00138
 200       22F+1        0.00107   0.00000   0.00000  -0.00100   0.00000
 201       22F-1       -0.00000   0.00107  -0.00100   0.00000   0.00000
 202       22F+2        0.00000  -0.00000   0.00000  -0.00000  -0.00000
 203       22F-2        0.00000   0.00000  -0.00000  -0.00000   0.00000
 204       22F+3        0.00000   0.00000  -0.00000  -0.00000   0.00000
 205       22F-3       -0.00000   0.00000   0.00000  -0.00000   0.00000
 206       23G 0       -0.00000  -0.00000   0.00000   0.00000  -0.00002
 207       23G+1        0.00001   0.00000   0.00000  -0.00000   0.00000
 208       23G-1       -0.00000   0.00001  -0.00000   0.00000   0.00000
 209       23G+2        0.00000  -0.00000   0.00000  -0.00000  -0.00000
 210       23G-2        0.00000   0.00000  -0.00000  -0.00000   0.00000
 211       23G+3       -0.00000   0.00000   0.00000   0.00000  -0.00000
 212       23G-3       -0.00000  -0.00000   0.00000  -0.00000  -0.00000
 213       23G+4        0.00000  -0.00000  -0.00000  -0.00000   0.00000
 214       23G-4        0.00000   0.00000  -0.00000  -0.00000   0.00000
 215       24G 0        0.00000   0.00000  -0.00000  -0.00000   0.00009
 216       24G+1       -0.00003  -0.00000  -0.00000   0.00001  -0.00000
 217       24G-1        0.00000  -0.00003   0.00001   0.00000  -0.00000
 218       24G+2       -0.00000   0.00000  -0.00000   0.00000  -0.00000
 219       24G-2       -0.00000  -0.00000   0.00000   0.00000   0.00000
 220       24G+3        0.00000  -0.00000  -0.00000  -0.00000  -0.00000
 221       24G-3        0.00000   0.00000  -0.00000   0.00000  -0.00000
 222       24G+4        0.00000   0.00000  -0.00000  -0.00000  -0.00000
 223       24G-4       -0.00000  -0.00000   0.00000   0.00000   0.00000
 224       25G 0       -0.00000  -0.00000   0.00000   0.00000  -0.00034
 225       25G+1        0.00050  -0.00000  -0.00000  -0.00028   0.00000
 226       25G-1       -0.00000   0.00050  -0.00028   0.00000   0.00000
 227       25G+2        0.00000  -0.00000   0.00000  -0.00000   0.00000
 228       25G-2        0.00000   0.00000  -0.00000  -0.00000   0.00000
 229       25G+3       -0.00000   0.00000   0.00000   0.00000   0.00000
 230       25G-3       -0.00000  -0.00000   0.00000  -0.00000   0.00000
 231       25G+4        0.00000  -0.00000  -0.00000  -0.00000   0.00000
 232       25G-4       -0.00000  -0.00000  -0.00000  -0.00000  -0.00000
 233       26H 0        0.00000   0.00000  -0.00000   0.00000   0.00003
 234       26H+1       -0.00002   0.00000  -0.00000  -0.00001  -0.00000
 235       26H-1        0.00000  -0.00002  -0.00001   0.00000  -0.00000
 236       26H+2       -0.00000   0.00000  -0.00000   0.00000   0.00000
 237       26H-2       -0.00000  -0.00000   0.00000   0.00000  -0.00000
 238       26H+3       -0.00000   0.00000   0.00000   0.00000  -0.00000
 239       26H-3        0.00000  -0.00000   0.00000  -0.00000   0.00000
 240       26H+4       -0.00000  -0.00000  -0.00000  -0.00000  -0.00000
 241       26H-4       -0.00000  -0.00000  -0.00000   0.00000  -0.00000
 242       26H+5        0.00000   0.00000  -0.00000  -0.00000  -0.00000
 243       26H-5       -0.00000  -0.00000   0.00000  -0.00000   0.00000
 244       27H 0       -0.00000  -0.00000   0.00000   0.00000  -0.00038
 245       27H+1        0.00024   0.00000  -0.00000   0.00003   0.00000
 246       27H-1       -0.00000   0.00024   0.00003   0.00000   0.00000
 247       27H+2        0.00000  -0.00000   0.00000  -0.00000  -0.00000
 248       27H-2        0.00000   0.00000  -0.00000  -0.00000   0.00000
 249       27H+3        0.00000  -0.00000  -0.00000   0.00000  -0.00000
 250       27H-3       -0.00000   0.00000   0.00000  -0.00000   0.00000
 251       27H+4        0.00000  -0.00000   0.00000  -0.00000  -0.00000
 252       27H-4        0.00000   0.00000  -0.00000  -0.00000   0.00000
 253       27H+5        0.00000   0.00000   0.00000   0.00000   0.00000
 254       27H-5        0.00000  -0.00000   0.00000  -0.00000  -0.00000
                          11        12        13        14        15
     Eigenvalues --     0.00013   0.00012   0.00012   0.00010   0.00010
   1 1   He 1S          2.33453  -2.18526   0.42398  -0.00000   0.00000
   2        2S          0.38397  -0.35975   0.07065   0.00000   0.00000
   3        3S         -0.44146   0.43182  -0.09322   0.00000  -0.00000
   4        4S         -1.97280   1.87425  -0.35395   0.00000   0.00000
   5        5S         -0.42644   0.34171  -0.09610   0.00000  -0.00000
   6        6S          0.03407  -0.15741   0.15149   0.00000  -0.00000
   7        7S          0.00403  -0.00344   0.00106   0.00000  -0.00000
   8        8PX        -0.00000   0.00000   0.00000   0.01741   0.00000
   9        8PY        -0.00000   0.00000   0.00000   0.00000   0.01741
  10        8PZ         0.00383   0.00689  -0.01517  -0.00000   0.00000
  11        9PX        -0.00000   0.00000   0.00000   0.14429  -0.00000
  12        9PY        -0.00000  -0.00000   0.00000  -0.00000   0.14429
  13        9PZ         0.03016   0.05066  -0.11619  -0.00000  -0.00000
  14       10PX         0.00000  -0.00000  -0.00000   0.46836   0.00000
  15       10PY        -0.00000  -0.00000   0.00000   0.00000   0.46836
  16       10PZ         0.10690   0.19099  -0.41986   0.00000   0.00000
  17       11PX         0.00000  -0.00000  -0.00000  -0.06638   0.00000
  18       11PY         0.00000   0.00000  -0.00000   0.00000  -0.06638
  19       11PZ         0.01206   0.00305  -0.03092   0.00000  -0.00000
  20       12PX        -0.00000   0.00000   0.00000  -0.42302   0.00000
  21       12PY         0.00000   0.00000   0.00000   0.00000  -0.42302
  22       12PZ        -0.06779  -0.17576   0.39896  -0.00000   0.00000
  23       13PX         0.00000  -0.00000  -0.00000  -0.04194  -0.00000
  24       13PY        -0.00000   0.00000   0.00000   0.00000  -0.04194
  25       13PZ        -0.00469  -0.03397   0.04698  -0.00000   0.00000
  26       14D 0        0.00015   0.00027  -0.00042   0.00000  -0.00000
  27       14D+1        0.00000  -0.00000   0.00000   0.00068   0.00000
  28       14D-1        0.00000  -0.00000   0.00000  -0.00000   0.00068
  29       14D+2       -0.00000  -0.00000  -0.00000   0.00000   0.00000
  30       14D-2        0.00000  -0.00000  -0.00000   0.00000   0.00000
  31       15D 0        0.00316   0.00371  -0.02067   0.00000   0.00000
  32       15D+1        0.00000   0.00000   0.00000   0.02185  -0.00000
  33       15D-1       -0.00000  -0.00000   0.00000  -0.00000   0.02185
  34       15D+2        0.00000   0.00000   0.00000  -0.00000   0.00000
  35       15D-2        0.00000   0.00000  -0.00000  -0.00000   0.00000
  36       16D 0        0.01417   0.01909  -0.07719   0.00000   0.00000
  37       16D+1        0.00000  -0.00000  -0.00000   0.08546   0.00000
  38       16D-1       -0.00000  -0.00000   0.00000  -0.00000   0.08546
  39       16D+2       -0.00000  -0.00000  -0.00000   0.00000   0.00000
  40       16D-2        0.00000   0.00000   0.00000   0.00000  -0.00000
  41       17D 0        0.01888   0.03630  -0.15233   0.00000  -0.00000
  42       17D+1        0.00000   0.00000   0.00000   0.13079  -0.00000
  43       17D-1       -0.00000  -0.00000   0.00000  -0.00000   0.13079
  44       17D+2        0.00000   0.00000   0.00000  -0.00000   0.00000
  45       17D-2        0.00000   0.00000   0.00000  -0.00000  -0.00000
  46       18D 0        0.00854   0.02100  -0.08992   0.00000  -0.00000
  47       18D+1        0.00000  -0.00000  -0.00000   0.06604   0.00000
  48       18D-1        0.00000  -0.00000  -0.00000  -0.00000   0.06604
  49       18D+2       -0.00000  -0.00000  -0.00000   0.00000   0.00000
  50       18D-2        0.00000  -0.00000  -0.00000   0.00000   0.00000
  51       19F 0        0.00001  -0.00007   0.00032   0.00000  -0.00000
  52       19F+1        0.00000  -0.00000  -0.00000  -0.00025  -0.00000
  53       19F-1        0.00000  -0.00000  -0.00000  -0.00000  -0.00025
  54       19F+2        0.00000  -0.00000   0.00000   0.00000   0.00000
  55       19F-2       -0.00000   0.00000   0.00000   0.00000   0.00000
  56       19F+3        0.00000   0.00000   0.00000   0.00000  -0.00000
  57       19F-3       -0.00000  -0.00000  -0.00000  -0.00000  -0.00000
  58       20F 0       -0.00015   0.00025  -0.00047   0.00000   0.00000
  59       20F+1       -0.00000   0.00000   0.00000   0.00032   0.00000
  60       20F-1        0.00000   0.00000   0.00000   0.00000   0.00032
  61       20F+2       -0.00000   0.00000  -0.00000  -0.00000  -0.00000
  62       20F-2       -0.00000   0.00000   0.00000  -0.00000  -0.00000
  63       20F+3       -0.00000  -0.00000  -0.00000  -0.00000  -0.00000
  64       20F-3        0.00000   0.00000   0.00000  -0.00000   0.00000
  65       21F 0       -0.00033  -0.00305   0.01101   0.00000  -0.00000
  66       21F+1       -0.00000  -0.00000  -0.00000  -0.00818   0.00000
  67       21F-1       -0.00000  -0.00000  -0.00000   0.00000  -0.00818
  68       21F+2        0.00000  -0.00000   0.00000   0.00000  -0.00000
  69       21F-2       -0.00000  -0.00000  -0.00000   0.00000   0.00000
  70       21F+3        0.00000   0.00000   0.00000   0.00000  -0.00000
  71       21F-3       -0.00000  -0.00000  -0.00000   0.00000  -0.00000
  72       22F 0       -0.00369  -0.00286   0.05327  -0.00000   0.00000
  73       22F+1        0.00000  -0.00000  -0.00000  -0.03747  -0.00000
  74       22F-1        0.00000   0.00000   0.00000   0.00000  -0.03747
  75       22F+2       -0.00000   0.00000  -0.00000  -0.00000   0.00000
  76       22F-2       -0.00000   0.00000   0.00000  -0.00000  -0.00000
  77       22F+3       -0.00000  -0.00000  -0.00000  -0.00000   0.00000
  78       22F-3        0.00000   0.00000   0.00000  -0.00000   0.00000
  79       23G 0        0.00004  -0.00010  -0.00023   0.00000  -0.00000
  80       23G+1       -0.00000   0.00000   0.00000   0.00015  -0.00000
  81       23G-1        0.00000  -0.00000  -0.00000   0.00000   0.00015
  82       23G+2        0.00000  -0.00000   0.00000   0.00000  -0.00000
  83       23G-2        0.00000  -0.00000  -0.00000   0.00000   0.00000
  84       23G+3       -0.00000  -0.00000  -0.00000   0.00000  -0.00000
  85       23G-3        0.00000   0.00000   0.00000   0.00000   0.00000
  86       23G+4       -0.00000   0.00000  -0.00000   0.00000  -0.00000
  87       23G-4       -0.00000  -0.00000  -0.00000  -0.00000   0.00000
  88       24G 0       -0.00021   0.00061   0.00086   0.00000   0.00000
  89       24G+1        0.00000  -0.00000  -0.00000  -0.00051  -0.00000
  90       24G-1        0.00000   0.00000   0.00000   0.00000  -0.00051
  91       24G+2       -0.00000  -0.00000  -0.00000  -0.00000   0.00000
[...]
  48       18D-1        0.00000   0.00000  -0.00000   0.00000
  49       18D+2        0.00000  -0.00000  -0.00000   0.00000
  50       18D-2        0.00000  -0.00000  -0.00000   0.00000
  51       19F 0        0.16363  -0.00863  -0.03419   0.01369
  52       19F+1        0.00000  -0.00000  -0.00000   0.00000
  53       19F-1        0.00000   0.00000   0.00000   0.00000
  54       19F+2       -0.00000   0.00000  -0.00000   0.00000
  55       19F-2        0.00000   0.00000  -0.00000  -0.00000
  56       19F+3       -0.00000   0.00000   0.00000   0.00000
  57       19F-3       -0.00000   0.00000  -0.00000  -0.00000
  58       20F 0       -0.30858   0.02198   0.07340  -0.03449
  59       20F+1       -0.00000  -0.00000   0.00000  -0.00000
  60       20F-1       -0.00000  -0.00000  -0.00000  -0.00000
  61       20F+2        0.00000  -0.00000   0.00000  -0.00000
  62       20F-2        0.00000  -0.00000   0.00000   0.00000
  63       20F+3        0.00000  -0.00000  -0.00000  -0.00000
  64       20F-3        0.00000   0.00000   0.00000   0.00000
  65       21F 0        0.45002  -0.04728  -0.14432   0.08715
  66       21F+1        0.00000   0.00000   0.00000   0.00000
  67       21F-1        0.00000  -0.00000   0.00000   0.00000
  68       21F+2       -0.00000   0.00000  -0.00000   0.00000
  69       21F-2       -0.00000   0.00000   0.00000  -0.00000
  70       21F+3       -0.00000   0.00000   0.00000   0.00000
  71       21F-3       -0.00000  -0.00000  -0.00000  -0.00000
  72       22F 0       -0.65526   0.09791   0.79962  -0.63533
  73       22F+1       -0.00000  -0.00000  -0.00000  -0.00000
  74       22F-1       -0.00000   0.00000   0.00000  -0.00000
  75       22F+2        0.00000  -0.00000   0.00000  -0.00000
  76       22F-2        0.00000  -0.00000  -0.00000   0.00000
  77       22F+3        0.00000  -0.00000  -0.00000  -0.00000
  78       22F-3        0.00000   0.00000   0.00000   0.00000
  79       23G 0        0.08571   0.00745  -0.02223   0.00420
  80       23G+1        0.00000   0.00000   0.00000   0.00000
  81       23G-1       -0.00000   0.00000   0.00000  -0.00000
  82       23G+2       -0.00000   0.00000  -0.00000   0.00000
  83       23G-2       -0.00000  -0.00000  -0.00000   0.00000
  84       23G+3        0.00000  -0.00000  -0.00000  -0.00000
  85       23G-3       -0.00000   0.00000  -0.00000  -0.00000
  86       23G+4       -0.00000  -0.00000   0.00000  -0.00000
  87       23G-4        0.00000  -0.00000   0.00000   0.00000
  88       24G 0       -0.14559  -0.00979   0.05011  -0.01150
  89       24G+1       -0.00000  -0.00000  -0.00000  -0.00000
  90       24G-1        0.00000  -0.00000  -0.00000   0.00000
  91       24G+2        0.00000  -0.00000   0.00000  -0.00000
  92       24G-2        0.00000   0.00000   0.00000  -0.00000
  93       24G+3       -0.00000   0.00000   0.00000   0.00000
  94       24G-3        0.00000  -0.00000   0.00000   0.00000
  95       24G+4        0.00000   0.00000   0.00000  -0.00000
  96       24G-4        0.00000   0.00000  -0.00000   0.00000
  97       25G 0        0.22102   0.00040  -0.19400   0.08853
  98       25G+1        0.00000   0.00000   0.00000   0.00000
  99       25G-1        0.00000   0.00000  -0.00000  -0.00000
 100       25G+2       -0.00000  -0.00000  -0.00000   0.00000
 101       25G-2       -0.00000  -0.00000  -0.00000   0.00000
 102       25G+3        0.00000  -0.00000  -0.00000  -0.00000
 103       25G-3       -0.00000   0.00000  -0.00000  -0.00000
 104       25G+4       -0.00000  -0.00000  -0.00000   0.00000
 105       25G-4        0.00000  -0.00000   0.00000   0.00000
 106       26H 0        0.00607   0.00503  -0.01183   0.00245
 107       26H+1        0.00000   0.00000   0.00000   0.00000
 108       26H-1        0.00000  -0.00000   0.00000  -0.00000
 109       26H+2       -0.00000   0.00000  -0.00000   0.00000
 110       26H-2       -0.00000   0.00000  -0.00000   0.00000
 111       26H+3        0.00000  -0.00000  -0.00000  -0.00000
 112       26H-3        0.00000  -0.00000   0.00000  -0.00000
 113       26H+4       -0.00000   0.00000   0.00000  -0.00000
 114       26H-4        0.00000  -0.00000   0.00000   0.00000
 115       26H+5        0.00000   0.00000  -0.00000  -0.00000
 116       26H-5       -0.00000   0.00000   0.00000   0.00000
 117       27H 0       -0.01234  -0.00536   0.05074  -0.01514
 118       27H+1       -0.00000  -0.00000  -0.00000   0.00000
 119       27H-1       -0.00000   0.00000  -0.00000  -0.00000
 120       27H+2        0.00000  -0.00000   0.00000  -0.00000
 121       27H-2        0.00000  -0.00000   0.00000  -0.00000
 122       27H+3       -0.00000   0.00000   0.00000   0.00000
 123       27H-3       -0.00000   0.00000  -0.00000   0.00000
 124       27H+4       -0.00000  -0.00000  -0.00000   0.00000
 125       27H-4       -0.00000   0.00000  -0.00000   0.00000
 126       27H+5       -0.00000  -0.00000   0.00000   0.00000
 127       27H-5        0.00000  -0.00000  -0.00000  -0.00000
 128 2   He 1S         -0.55754  -1.43726  -1.12234  -0.13327
 129        2S          0.14510   0.39651   0.29856   0.04166
 130        3S         -0.14477  -0.34357  -0.18850  -0.06983
 131        4S          1.04843   1.79439   1.19224   0.23490
 132        5S         -1.78438  -1.52623  -2.70183   1.73163
 133        6S          0.95100   2.78658   9.34488  -8.54037
 134        7S         -0.21146  -1.39437  -1.55523  -2.87515
 135        8PX         0.00000   0.00000   0.00000  -0.00000
 136        8PY         0.00000  -0.00000  -0.00000   0.00000
 137        8PZ        -0.23058   0.02386   0.07664  -0.00391
 138        9PX        -0.00000  -0.00000  -0.00000  -0.00000
 139        9PY        -0.00000   0.00000   0.00000   0.00000
 140        9PZ         0.53154  -0.06841  -0.22547   0.01766
 141       10PX         0.00000   0.00000   0.00000   0.00000
 142       10PY         0.00000  -0.00000  -0.00000  -0.00000
 143       10PZ        -0.81088   0.13855   0.49895  -0.07874
 144       11PX        -0.00000  -0.00000  -0.00000  -0.00000
 145       11PY        -0.00000   0.00000   0.00000   0.00000
 146       11PZ         1.19984  -0.27518  -1.15956   0.35496
 147       12PX         0.00000   0.00000   0.00000   0.00000
 148       12PY         0.00000  -0.00000  -0.00000  -0.00000
 149       12PZ        -2.03077   0.55862   2.11534  -0.82455
 150       13PX        -0.00000  -0.00000  -0.00000  -0.00000
 151       13PY        -0.00000   0.00000   0.00000   0.00000
 152       13PZ         1.60054  -0.58722   4.30086  -7.35356
 153       14D 0        0.00055  -0.04668   0.01876  -0.02818
 154       14D+1        0.00000   0.00000   0.00000  -0.00000
 155       14D-1        0.00000   0.00000  -0.00000  -0.00000
 156       14D+2        0.00000  -0.00000   0.00000  -0.00000
 157       14D-2       -0.00000  -0.00000  -0.00000  -0.00000
 158       15D 0       -0.01100   0.11323  -0.03985   0.07613
 159       15D+1       -0.00000  -0.00000  -0.00000   0.00000
 160       15D-1       -0.00000  -0.00000   0.00000   0.00000
 161       15D+2       -0.00000   0.00000  -0.00000   0.00000
 162       15D-2        0.00000   0.00000   0.00000  -0.00000
 163       16D 0        0.07620  -0.20277   0.05686  -0.15672
 164       16D+1        0.00000   0.00000   0.00000  -0.00000
 165       16D-1        0.00000  -0.00000  -0.00000  -0.00000
 166       16D+2        0.00000  -0.00000   0.00000   0.00000
 167       16D-2       -0.00000  -0.00000  -0.00000   0.00000
 168       17D 0       -0.33564   0.32823  -0.16060   0.36597
 169       17D+1       -0.00000  -0.00000  -0.00000  -0.00000
 170       17D-1       -0.00000   0.00000   0.00000   0.00000
 171       17D+2       -0.00000   0.00000  -0.00000  -0.00000
 172       17D-2        0.00000   0.00000   0.00000  -0.00000
 173       18D 0        0.63375  -0.43542   2.64197  -3.05833
 174       18D+1        0.00000   0.00000   0.00000   0.00000
 175       18D-1        0.00000  -0.00000  -0.00000   0.00000
 176       18D+2        0.00000  -0.00000   0.00000  -0.00000
 177       18D-2       -0.00000  -0.00000  -0.00000   0.00000
 178       19F 0       -0.16363   0.00863  -0.03419   0.01369
 179       19F+1        0.00000  -0.00000  -0.00000   0.00000
 180       19F-1        0.00000   0.00000   0.00000   0.00000
 181       19F+2        0.00000  -0.00000  -0.00000   0.00000
 182       19F-2        0.00000   0.00000   0.00000   0.00000
 183       19F+3       -0.00000   0.00000   0.00000   0.00000
 184       19F-3       -0.00000   0.00000  -0.00000  -0.00000
 185       20F 0        0.30858  -0.02198   0.07340  -0.03449
 186       20F+1       -0.00000  -0.00000   0.00000  -0.00000
 187       20F-1       -0.00000  -0.00000  -0.00000  -0.00000
 188       20F+2       -0.00000   0.00000   0.00000  -0.00000
 189       20F-2       -0.00000   0.00000   0.00000  -0.00000
 190       20F+3        0.00000  -0.00000  -0.00000  -0.00000
 191       20F-3        0.00000   0.00000   0.00000   0.00000
 192       21F 0       -0.45002   0.04728  -0.14432   0.08715
 193       21F+1        0.00000   0.00000   0.00000   0.00000
 194       21F-1        0.00000  -0.00000   0.00000   0.00000
 195       21F+2        0.00000  -0.00000  -0.00000   0.00000
 196       21F-2        0.00000  -0.00000  -0.00000   0.00000
 197       21F+3       -0.00000   0.00000   0.00000   0.00000
 198       21F-3       -0.00000  -0.00000  -0.00000  -0.00000
 199       22F 0        0.65526  -0.09791   0.79962  -0.63533
 200       22F+1       -0.00000  -0.00000  -0.00000  -0.00000
 201       22F-1        0.00000   0.00000  -0.00000   0.00000
 202       22F+2       -0.00000   0.00000   0.00000  -0.00000
 203       22F-2        0.00000   0.00000   0.00000  -0.00000
 204       22F+3        0.00000  -0.00000  -0.00000  -0.00000
 205       22F-3        0.00000   0.00000   0.00000   0.00000
 206       23G 0        0.08571   0.00745   0.02223  -0.00420
 207       23G+1       -0.00000  -0.00000  -0.00000  -0.00000
 208       23G-1        0.00000  -0.00000   0.00000   0.00000
 209       23G+2       -0.00000   0.00000   0.00000  -0.00000
 210       23G-2        0.00000  -0.00000  -0.00000   0.00000
 211       23G+3       -0.00000   0.00000   0.00000   0.00000
 212       23G-3        0.00000  -0.00000   0.00000   0.00000
 213       23G+4       -0.00000  -0.00000  -0.00000   0.00000
 214       23G-4        0.00000   0.00000  -0.00000  -0.00000
 215       24G 0       -0.14559  -0.00979  -0.05011   0.01150
 216       24G+1        0.00000   0.00000   0.00000   0.00000
 217       24G-1       -0.00000   0.00000   0.00000  -0.00000
 218       24G+2        0.00000  -0.00000  -0.00000   0.00000
 219       24G-2       -0.00000   0.00000   0.00000  -0.00000
 220       24G+3        0.00000  -0.00000  -0.00000  -0.00000
 221       24G-3       -0.00000   0.00000  -0.00000  -0.00000
 222       24G+4        0.00000   0.00000  -0.00000   0.00000
 223       24G-4        0.00000   0.00000  -0.00000  -0.00000
 224       25G 0        0.22102   0.00040   0.19400  -0.08853
 225       25G+1       -0.00000  -0.00000  -0.00000  -0.00000
 226       25G-1        0.00000  -0.00000  -0.00000   0.00000
 227       25G+2       -0.00000  -0.00000   0.00000  -0.00000
 228       25G-2        0.00000  -0.00000  -0.00000   0.00000
 229       25G+3       -0.00000   0.00000   0.00000   0.00000
 230       25G-3        0.00000  -0.00000   0.00000   0.00000
 231       25G+4       -0.00000  -0.00000   0.00000  -0.00000
 232       25G-4        0.00000   0.00000  -0.00000  -0.00000
 233       26H 0       -0.00607  -0.00503  -0.01183   0.00245
 234       26H+1        0.00000   0.00000   0.00000   0.00000
 235       26H-1        0.00000  -0.00000   0.00000   0.00000
 236       26H+2        0.00000  -0.00000  -0.00000   0.00000
 237       26H-2       -0.00000   0.00000   0.00000  -0.00000
 238       26H+3        0.00000  -0.00000  -0.00000  -0.00000
 239       26H-3        0.00000  -0.00000   0.00000  -0.00000
 240       26H+4        0.00000  -0.00000   0.00000  -0.00000
 241       26H-4        0.00000   0.00000  -0.00000   0.00000
 242       26H+5        0.00000   0.00000  -0.00000  -0.00000
 243       26H-5       -0.00000   0.00000   0.00000   0.00000
 244       27H 0        0.01234   0.00536   0.05074  -0.01514
 245       27H+1       -0.00000  -0.00000  -0.00000   0.00000
 246       27H-1        0.00000   0.00000  -0.00000  -0.00000
 247       27H+2       -0.00000   0.00000   0.00000  -0.00000
 248       27H-2        0.00000  -0.00000  -0.00000   0.00000
 249       27H+3       -0.00000   0.00000   0.00000   0.00000
 250       27H-3       -0.00000   0.00000  -0.00000   0.00000
 251       27H+4        0.00000   0.00000  -0.00000   0.00000
 252       27H-4        0.00000  -0.00000   0.00000   0.00000
 253       27H+5       -0.00000  -0.00000   0.00000   0.00000
 254       27H-5        0.00000  -0.00000  -0.00000  -0.00000
          Condensed to atoms (all electrons):
               1          2
     1  He   2.008294  -0.008294
     2  He  -0.008294   2.008294
 Mulliken charges:
               1
     1  He  -0.000000
     2  He   0.000000
 Sum of Mulliken charges =   0.00000
 Mulliken charges with hydrogens summed into heavy atoms:
               1
     1  He  -0.000000
     2  He   0.000000
 Electronic spatial extent (au):  <R**2>=             19.0832
 Charge=              0.0000 electrons
 Dipole moment (field-independent basis, Debye):
    X=              0.0000    Y=             -0.0000    Z=              0.0000  Tot=              0.0000
 Quadrupole moment (field-independent basis, Debye-Ang):
   XX=             -2.1327   YY=             -2.1327   ZZ=             -2.1892
   XY=             -0.0000   XZ=              0.0000   YZ=              0.0000
 Traceless Quadrupole moment (field-independent basis, Debye-Ang):
   XX=              0.0188   YY=              0.0188   ZZ=             -0.0377
   XY=             -0.0000   XZ=              0.0000   YZ=              0.0000
 Octapole moment (field-independent basis, Debye-Ang**2):
  XXX=             -0.0000  YYY=              0.0000  ZZZ=             -0.0000  XYY=             -0.0000
  XXY=              0.0000  XXZ=             -0.0000  XZZ=             -0.0000  YZZ=             -0.0000
  YYZ=             -0.0000  XYZ=              0.0000
 Hexadecapole moment (field-independent basis, Debye-Ang**3):
 XXXX=             -1.1860 YYYY=             -1.1860 ZZZZ=            -14.1612 XXXY=             -0.0000
 XXXZ=              0.0000 YYYX=             -0.0000 YYYZ=              0.0000 ZZZX=              0.0000
 ZZZY=              0.0000 XXYY=             -0.3953 XXZZ=             -2.5464 YYZZ=             -2.5464
 XXYZ=              0.0000 YYXZ=              0.0000 ZZXY=             -0.0000
 N-N= 1.058354421840D+00 E-N=-1.563507209443D+01  KE= 5.822087713981D+00
 Symmetry AG   KE= 2.742568918624D+00
 Symmetry B1G  KE= 5.623794857129D-04
 Symmetry B2G  KE= 8.402676641405D-03
 Symmetry B3G  KE= 8.402676641406D-03
 Symmetry AU   KE= 5.618766005099D-04
 Symmetry B1U  KE= 3.044856479873D+00
 Symmetry B2U  KE= 8.366353059361D-03
 Symmetry B3U  KE= 8.366353059360D-03
 No NMR shielding tensors so no spin-rotation constants.
 ... and contract with generalized density number  7.
 Compute integral first derivatives.
 L702 exits ... SP integral derivatives will be done elsewhere.
 Integral derivatives from FoFJK, PRISM(SPDF).
 Compute integral first derivatives, UseDBF=F ICtDFT=           0.
 Calling FoFJK, ICntrl=  10002127 FMM=F ISym2X=1 I1Cent= 0 IOpClX= 0 NMat=1 NMatS=1 NMatT=0.
 FoFJK:  IHMeth= 1 ICntrl=10002127 DoSepK=F KAlg= 0 I1Cent=           0 FoldK=F
 IRaf=         0 NMat=       1 IRICut=       1 DoRegI=T DoRafI=F ISym2E= 1 IDoP0=0 IntGTp=1.
 FoFCou: FMM=F IPFlag=           0 FMFlag=      100000 FMFlg1=         800
         NFxFlg=           0 DoJE=F BraDBF=F KetDBF=F FulRan=T
         wScrn=  0.000000 ICntrl=  10002127 IOpCl=  0 I1Cent=           0 NGrid=           0
         NMat0=    1 NMatS0=      1 NMatT0=    0 NMatD0=    1 NMtDS0=    0 NMtDT0=    0
 Petite list used in FoFCou.
 Dipole        = 4.14151975D-30-8.52183899D-37 4.44089210D-16
 ***** Axes restored to original set *****
 -------------------------------------------------------------------
 Center     Atomic                   Forces (Hartrees/Bohr)
 Number     Number              X              Y              Z
 -------------------------------------------------------------------
      1        2           0.000000000    0.000000000   -0.004620940
      2        2          -0.000000000   -0.000000000    0.004620940
 -------------------------------------------------------------------
 Cartesian Forces:  Max     0.004620940 RMS     0.002667901
 Z-matrix is all fixed cartesians, so copy forces.
 Force constants in Cartesian coordinates: 
                1             2             3             4             5 
      1  0.100000D+01
      2  0.000000D+00  0.100000D+01
      3  0.000000D+00  0.000000D+00  0.100000D+01
      4  0.000000D+00  0.000000D+00  0.000000D+00  0.100000D+01
      5  0.000000D+00  0.000000D+00  0.000000D+00  0.000000D+00  0.100000D+01
      6  0.000000D+00  0.000000D+00  0.000000D+00  0.000000D+00  0.000000D+00
                6 
      6  0.100000D+01


 GradGradGradGradGradGradGradGradGradGradGradGradGradGradGradGradGradGrad
 Berny optimization.
 Search for a local minimum.
 Step number   1 out of a maximum of    2
 All quantities printed in internal units (Hartrees-Bohrs-Radians)
 Second derivative matrix not updated -- first step.
 The second derivative matrix:
                          X1        Y1        Z1        X2        Y2
           X1           1.00000
           Y1           0.00000   1.00000
           Z1           0.00000   0.00000   1.00000
           X2           0.00000   0.00000   0.00000   1.00000
           Y2           0.00000   0.00000   0.00000   0.00000   1.00000
           Z2           0.00000   0.00000   0.00000   0.00000   0.00000
                          Z2
           Z2           1.00000
 ITU=  0
     Eigenvalues ---    1.00000   1.00000   1.00000   1.00000   1.00000
     Eigenvalues ---    1.00000
 Angle between quadratic step and forces=   0.00 degrees.
 ClnCor:  largest displacement from symmetrization is 1.09D-16 for atom     2.
 Linear search not attempted -- first point.
 ClnCor:  largest displacement from symmetrization is 0.00D+00 for atom     0.
 B after Tr=    -0.000000    0.000000    0.000000
         Rot=    1.000000    0.000000    0.000000    0.000000 Ang=   0.00 deg.
 Variable       Old X    -DE/DX   Delta X   Delta X   Delta X     New X
                                 (Linear)    (Quad)   (Total)
    X1        0.00000   0.00000   0.00000   0.00000  -0.00000  -0.00000
    Y1        0.00000   0.00000   0.00000   0.00000   0.00000   0.00000
    Z1       -1.88973  -0.00462   0.00000  -0.00462  -0.00462  -1.89435
    X2        0.00000  -0.00000   0.00000   0.00000   0.00000   0.00000
    Y2        0.00000  -0.00000   0.00000   0.00000   0.00000   0.00000
    Z2        1.88973   0.00462   0.00000   0.00462   0.00462   1.89435
         Item               Value     Threshold  Converged?
 Maximum Force            0.004621     0.000450     NO 
 RMS     Force            0.002668     0.000300     NO 
 Maximum Displacement     0.004621     0.001800     NO 
 RMS     Displacement     0.002668     0.001200     NO 
 Predicted change in Energy=-2.135309D-05
 GradGradGradGradGradGradGradGradGradGradGradGradGradGradGradGradGradGrad


 1\1\Force\RCCSD-Full\Gen\He2\0\\#p CCSD-ful
 l/GEN Integral=(grid=999974) SCF=(Conver=11) output = wfn density = cu
 rrent Force\\title calculation of HelFey forces\\0,1\He,0.,0.,-1.\He,0
 .,0.,1.\\Version=ES64L-G16RevA.03\State=1-SGG\HF=-5.7210742\MP2=-5.795
 3326\MP3=-5.8031716\MP4D=-5.8051771\MP4DQ=-5.8047471\MP4SDQ=-5.8047831
 \CCSD=-5.8051527\RMSD=3.287e-13\RMSF=2.668e-03\Dipole=0.,0.,0.\PG=D*H 
 [C*(He1.He1)]\\@

 Writing a WFN file to "HeHe_CCSD-full_ACC6_2.000.wfn"


 THERE'S SMALL CHOICE IN A BOWL OF ROTTEN APPLES.
                     SHAKESPEARE