 title calculation of HelFey forces
GAUSSIAN            127 MOL ORBITALS    191 PRIMITIVES        1 NUCLEI
  He   1    (CENTRE  1)   0.00000000  0.00000000  0.00000000  CHARGE =  2.0
CENTRE ASSIGNMENTS    1  1  1  1  1  1  1  1  1  1  1  1  1  1  1  1  1  1  1  1
CENTRE ASSIGNMENTS    1  1  1  1  1  1  1  1  1  1  1  1  1  1  1  1  1  1  1  1
CENTRE ASSIGNMENTS    1  1  1  1  1  1  1  1  1  1  1  1  1  1  1  1  1  1  1  1
CENTRE ASSIGNMENTS    1  1  1  1  1  1  1  1  1  1  1  1  1  1  1  1  1  1  1  1
CENTRE ASSIGNMENTS    1  1  1  1  1  1  1  1  1  1  1  1  1  1  1  1  1  1  1  1
CENTRE ASSIGNMENTS    1  1  1  1  1  1  1  1  1  1  1  1  1  1  1  1  1  1  1  1
CENTRE ASSIGNMENTS    1  1  1  1  1  1  1  1  1  1  1  1  1  1  1  1  1  1  1  1
CENTRE ASSIGNMENTS    1  1  1  1  1  1  1  1  1  1  1  1  1  1  1  1  1  1  1  1
CENTRE ASSIGNMENTS    1  1  1  1  1  1  1  1  1  1  1  1  1  1  1  1  1  1  1  1
CENTRE ASSIGNMENTS    1  1  1  1  1  1  1  1  1  1  1
TYPE ASSIGNMENTS      1  1  1  1  1  1  1  1  1  1  1  1  1  1  1  1  2  3  4  2
TYPE ASSIGNMENTS      3  4  2  3  4  2  3  4  2  3  4  2  3  4  5  6  7  8  9 10
TYPE ASSIGNMENTS      5  6  7  8  9 10  5  6  7  8  9 10  5  6  7  8  9 10  5  6
TYPE ASSIGNMENTS      7  8  9 10 11 12 13 17 14 15 18 19 16 20 11 12 13 17 14 15
TYPE ASSIGNMENTS     18 19 16 20 11 12 13 17 14 15 18 19 16 20 11 12 13 17 14 15
TYPE ASSIGNMENTS     18 19 16 20 23 29 32 27 22 28 35 34 26 31 33 30 25 24 21 23
TYPE ASSIGNMENTS     29 32 27 22 28 35 34 26 31 33 30 25 24 21 23 29 32 27 22 28
TYPE ASSIGNMENTS     35 34 26 31 33 30 25 24 21 36 37 38 39 40 41 42 43 44 45 46
TYPE ASSIGNMENTS     47 48 49 50 51 52 53 54 55 56 36 37 38 39 40 41 42 43 44 45
TYPE ASSIGNMENTS     46 47 48 49 50 51 52 53 54 55 56
EXPONENTS  0.4785000D+04 0.7170000D+03 0.1632000D+03 0.4626000D+02 0.1510000D+02
EXPONENTS  0.5437000D+01 0.2088000D+01 0.8297000D+00 0.3366000D+00 0.1369000D+00
EXPONENTS  0.5437000D+01 0.2088000D+01 0.8297000D+00 0.3366000D+00 0.1369000D+00
EXPONENTS  0.4473000D-01 0.1610400D+02 0.1610400D+02 0.1610400D+02 0.6342000D+01
EXPONENTS  0.6342000D+01 0.6342000D+01 0.2498000D+01 0.2498000D+01 0.2498000D+01
EXPONENTS  0.9840000D+00 0.9840000D+00 0.9840000D+00 0.3870000D+00 0.3870000D+00
EXPONENTS  0.3870000D+00 0.1280000D+00 0.1280000D+00 0.1280000D+00 0.1249800D+02
EXPONENTS  0.1249800D+02 0.1249800D+02 0.1249800D+02 0.1249800D+02 0.1249800D+02
EXPONENTS  0.4886000D+01 0.4886000D+01 0.4886000D+01 0.4886000D+01 0.4886000D+01
EXPONENTS  0.4886000D+01 0.1910000D+01 0.1910000D+01 0.1910000D+01 0.1910000D+01
EXPONENTS  0.1910000D+01 0.1910000D+01 0.7470000D+00 0.7470000D+00 0.7470000D+00
EXPONENTS  0.7470000D+00 0.7470000D+00 0.7470000D+00 0.2410000D+00 0.2410000D+00
EXPONENTS  0.2410000D+00 0.2410000D+00 0.2410000D+00 0.2410000D+00 0.9276000D+01
EXPONENTS  0.9276000D+01 0.9276000D+01 0.9276000D+01 0.9276000D+01 0.9276000D+01
EXPONENTS  0.9276000D+01 0.9276000D+01 0.9276000D+01 0.9276000D+01 0.3462000D+01
EXPONENTS  0.3462000D+01 0.3462000D+01 0.3462000D+01 0.3462000D+01 0.3462000D+01
EXPONENTS  0.3462000D+01 0.3462000D+01 0.3462000D+01 0.3462000D+01 0.1292000D+01
EXPONENTS  0.1292000D+01 0.1292000D+01 0.1292000D+01 0.1292000D+01 0.1292000D+01
EXPONENTS  0.1292000D+01 0.1292000D+01 0.1292000D+01 0.1292000D+01 0.4070000D+00
EXPONENTS  0.4070000D+00 0.4070000D+00 0.4070000D+00 0.4070000D+00 0.4070000D+00
EXPONENTS  0.4070000D+00 0.4070000D+00 0.4070000D+00 0.4070000D+00 0.6586000D+01
EXPONENTS  0.6586000D+01 0.6586000D+01 0.6586000D+01 0.6586000D+01 0.6586000D+01
EXPONENTS  0.6586000D+01 0.6586000D+01 0.6586000D+01 0.6586000D+01 0.6586000D+01
EXPONENTS  0.6586000D+01 0.6586000D+01 0.6586000D+01 0.6586000D+01 0.2236000D+01
EXPONENTS  0.2236000D+01 0.2236000D+01 0.2236000D+01 0.2236000D+01 0.2236000D+01
EXPONENTS  0.2236000D+01 0.2236000D+01 0.2236000D+01 0.2236000D+01 0.2236000D+01
EXPONENTS  0.2236000D+01 0.2236000D+01 0.2236000D+01 0.2236000D+01 0.6860000D+00
EXPONENTS  0.6860000D+00 0.6860000D+00 0.6860000D+00 0.6860000D+00 0.6860000D+00
EXPONENTS  0.6860000D+00 0.6860000D+00 0.6860000D+00 0.6860000D+00 0.6860000D+00
EXPONENTS  0.6860000D+00 0.6860000D+00 0.6860000D+00 0.6860000D+00 0.4159000D+01
EXPONENTS  0.4159000D+01 0.4159000D+01 0.4159000D+01 0.4159000D+01 0.4159000D+01
EXPONENTS  0.4159000D+01 0.4159000D+01 0.4159000D+01 0.4159000D+01 0.4159000D+01
EXPONENTS  0.4159000D+01 0.4159000D+01 0.4159000D+01 0.4159000D+01 0.4159000D+01
EXPONENTS  0.4159000D+01 0.4159000D+01 0.4159000D+01 0.4159000D+01 0.4159000D+01
EXPONENTS  0.1016000D+01 0.1016000D+01 0.1016000D+01 0.1016000D+01 0.1016000D+01
EXPONENTS  0.1016000D+01 0.1016000D+01 0.1016000D+01 0.1016000D+01 0.1016000D+01
EXPONENTS  0.1016000D+01 0.1016000D+01 0.1016000D+01 0.1016000D+01 0.1016000D+01
EXPONENTS  0.1016000D+01 0.1016000D+01 0.1016000D+01 0.1016000D+01 0.1016000D+01
EXPONENTS  0.1016000D+01
MO    1     MO 0.0        OCC NO =    1.9839552  ORB. ENERGY =    0.000000
  0.24704503D-01  0.46606946D-01  0.79733965D-01  0.12846894D+00  0.19110564D+00
  0.25076802D+00  0.26889820D+00  0.21716602D+00  0.10961691D+00  0.18553711D-01
  0.11842242D-02  0.33966212D-03 -0.22713579D-02 -0.81500125D-03  0.18745943D-03
  0.61434342D-04  0.00000000D+00  0.00000000D+00  0.00000000D+00  0.00000000D+00
  0.00000000D+00  0.00000000D+00  0.00000000D+00  0.00000000D+00  0.00000000D+00
  0.00000000D+00  0.00000000D+00  0.00000000D+00  0.00000000D+00  0.00000000D+00
  0.00000000D+00  0.00000000D+00  0.00000000D+00  0.00000000D+00 -0.26632149D-13
 -0.18838800D-13  0.45470949D-13 -0.19091945D-29 -0.74642954D-30 -0.72530764D-14
  0.75165456D-14  0.29923190D-14 -0.10508865D-13  0.54855188D-30  0.30092590D-30
  0.24045928D-14 -0.98396981D-15 -0.51002387D-16  0.10349722D-14 -0.10458346D-30
 -0.39122704D-31  0.86418817D-16  0.13624139D-15  0.82950621D-17 -0.14453645D-15
  0.98029665D-32 -0.52835063D-33 -0.10369978D-15 -0.51592334D-17 -0.15180257D-16
  0.20339491D-16 -0.24005663D-33  0.10231017D-33  0.11360234D-16  0.00000000D+00
  0.00000000D+00  0.00000000D+00  0.00000000D+00  0.00000000D+00  0.00000000D+00
  0.00000000D+00  0.00000000D+00  0.00000000D+00  0.00000000D+00  0.00000000D+00
  0.00000000D+00  0.00000000D+00  0.00000000D+00  0.00000000D+00  0.00000000D+00
  0.00000000D+00  0.00000000D+00  0.00000000D+00  0.00000000D+00  0.00000000D+00
  0.00000000D+00  0.00000000D+00  0.00000000D+00  0.00000000D+00  0.00000000D+00
  0.00000000D+00  0.00000000D+00  0.00000000D+00  0.00000000D+00  0.00000000D+00
  0.00000000D+00  0.00000000D+00  0.00000000D+00  0.00000000D+00  0.00000000D+00
  0.00000000D+00  0.00000000D+00  0.00000000D+00  0.00000000D+00 -0.44462562D-13
 -0.74478204D-13  0.11924345D-12  0.78355204D-13 -0.36851929D-13  0.57950088D-29
 -0.56470843D-29 -0.28645898D-29 -0.13965222D-28  0.14753192D-12 -0.11631000D-13
  0.10186813D-12 -0.48401455D-29  0.15847584D-28 -0.41566675D-13  0.17886060D-14
 -0.71140643D-16 -0.37293623D-14  0.74843912D-16  0.12325842D-14 -0.23050124D-30
 -0.76023625D-31  0.30503251D-30  0.11559295D-29 -0.70022735D-14 -0.11109808D-16
 -0.36661428D-14  0.12882373D-30 -0.11305883D-29  0.17780694D-14  0.15129214D-15
  0.17121823D-15 -0.54664725D-15 -0.18013108D-15  0.17054819D-15  0.21617673D-31
 -0.47538657D-32 -0.93395406D-32 -0.12152827D-30 -0.36110557D-15  0.26738551D-16
 -0.47664188D-15 -0.18504493D-31  0.12311289D-30  0.13962458D-15  0.00000000D+00
  0.00000000D+00  0.00000000D+00  0.00000000D+00  0.00000000D+00  0.00000000D+00
  0.00000000D+00  0.00000000D+00  0.00000000D+00  0.00000000D+00  0.00000000D+00
  0.00000000D+00  0.00000000D+00  0.00000000D+00  0.00000000D+00  0.00000000D+00
  0.00000000D+00  0.00000000D+00  0.00000000D+00  0.00000000D+00  0.00000000D+00
  0.00000000D+00  0.00000000D+00  0.00000000D+00  0.00000000D+00  0.00000000D+00
  0.00000000D+00  0.00000000D+00  0.00000000D+00  0.00000000D+00  0.00000000D+00
  0.00000000D+00  0.00000000D+00  0.00000000D+00  0.00000000D+00  0.00000000D+00
  0.00000000D+00  0.00000000D+00  0.00000000D+00  0.00000000D+00  0.00000000D+00
  0.00000000D+00
MO    2     MO 0.0        OCC NO =    0.0075759  ORB. ENERGY =    0.000000
 -0.40365318D-01 -0.76152277D-01 -0.13027936D+00 -0.20990868D+00 -0.31225238D+00
 -0.40973626D+00 -0.43935962D+00 -0.35483310D+00 -0.17910587D+00 -0.30315381D-01
 -0.22185828D+00 -0.30820328D+00  0.22845259D+00  0.40981761D+00  0.83394893D-01
  0.24690500D-03  0.00000000D+00  0.00000000D+00  0.00000000D+00  0.00000000D+00
  0.00000000D+00  0.00000000D+00  0.00000000D+00  0.00000000D+00  0.00000000D+00
  0.00000000D+00  0.00000000D+00  0.00000000D+00  0.00000000D+00  0.00000000D+00
  0.00000000D+00  0.00000000D+00  0.00000000D+00  0.00000000D+00  0.74251540D-13
  0.40182654D-13 -0.11443419D-12  0.85124598D-27  0.70464045D-28 -0.10089557D-13
 -0.32020794D-13 -0.12875761D-13  0.44896556D-13  0.77599705D-27  0.99789579D-28
  0.40245267D-14  0.75721273D-14  0.13730344D-14 -0.89451617D-14  0.40860403D-27
  0.66658832D-28 -0.15113211D-14 -0.12468012D-14  0.30167986D-15  0.94512137D-15
  0.63039977D-28  0.10302197D-28  0.78396759D-16  0.74232055D-16 -0.66470847D-16
 -0.77612077D-17  0.11410081D-29  0.26384567D-30 -0.10736265D-16  0.00000000D+00
  0.00000000D+00  0.00000000D+00  0.00000000D+00  0.00000000D+00  0.00000000D+00
  0.00000000D+00  0.00000000D+00  0.00000000D+00  0.00000000D+00  0.00000000D+00
  0.00000000D+00  0.00000000D+00  0.00000000D+00  0.00000000D+00  0.00000000D+00
  0.00000000D+00  0.00000000D+00  0.00000000D+00  0.00000000D+00  0.00000000D+00
  0.00000000D+00  0.00000000D+00  0.00000000D+00  0.00000000D+00  0.00000000D+00
  0.00000000D+00  0.00000000D+00  0.00000000D+00  0.00000000D+00  0.00000000D+00
  0.00000000D+00  0.00000000D+00  0.00000000D+00  0.00000000D+00  0.00000000D+00
  0.00000000D+00  0.00000000D+00  0.00000000D+00  0.00000000D+00  0.20662289D-12
 -0.10612598D-11 -0.67323489D-12  0.10436972D-11  0.16196671D-12 -0.18731919D-28
  0.11139085D-28  0.83631229D-29  0.65743059D-28 -0.56650243D-12  0.52687665D-13
 -0.29856538D-12  0.15944211D-28 -0.69456088D-28  0.14417797D-12 -0.72673618D-14
  0.36809709D-14  0.24878684D-13 -0.11768372D-16 -0.61098904D-14  0.91773476D-30
 -0.60796916D-30 -0.11975585D-29 -0.44772827D-29  0.18725487D-13 -0.11007608D-13
  0.11780658D-13 -0.51854860D-30  0.46799391D-29 -0.50843575D-14 -0.21906534D-15
  0.25338636D-14  0.74190283D-15 -0.24834145D-14 -0.42829908D-15 -0.12782470D-31
 -0.13982525D-31  0.27226092D-31  0.93374903D-31  0.57248923D-15 -0.15134732D-15
  0.18278916D-14  0.37071059D-32 -0.88714061D-31 -0.40006347D-15  0.00000000D+00
  0.00000000D+00  0.00000000D+00  0.00000000D+00  0.00000000D+00  0.00000000D+00
  0.00000000D+00  0.00000000D+00  0.00000000D+00  0.00000000D+00  0.00000000D+00
  0.00000000D+00  0.00000000D+00  0.00000000D+00  0.00000000D+00  0.00000000D+00
  0.00000000D+00  0.00000000D+00  0.00000000D+00  0.00000000D+00  0.00000000D+00
  0.00000000D+00  0.00000000D+00  0.00000000D+00  0.00000000D+00  0.00000000D+00
  0.00000000D+00  0.00000000D+00  0.00000000D+00  0.00000000D+00  0.00000000D+00
  0.00000000D+00  0.00000000D+00  0.00000000D+00  0.00000000D+00  0.00000000D+00
  0.00000000D+00  0.00000000D+00  0.00000000D+00  0.00000000D+00  0.00000000D+00
  0.00000000D+00
MO    3     MO 0.0        OCC NO =    0.0025473  ORB. ENERGY =    0.000000
  0.00000000D+00  0.00000000D+00  0.00000000D+00  0.00000000D+00  0.00000000D+00
  0.00000000D+00  0.00000000D+00  0.00000000D+00  0.00000000D+00  0.00000000D+00
  0.00000000D+00  0.00000000D+00  0.00000000D+00  0.00000000D+00  0.00000000D+00
  0.00000000D+00  0.40470765D+00 -0.22815757D-30 -0.85117145D-31  0.59082381D+00
 -0.27342945D-30 -0.25134107D-30  0.11760598D+01 -0.58126069D-30 -0.32155635D-30
  0.76040856D+00 -0.37368894D-30 -0.26862797D-30  0.11989012D+00 -0.58971657D-31
 -0.31924744D-31  0.12637766D-02 -0.65447533D-33 -0.10272983D-32  0.00000000D+00
  0.00000000D+00  0.00000000D+00  0.00000000D+00  0.00000000D+00  0.00000000D+00
  0.00000000D+00  0.00000000D+00  0.00000000D+00  0.00000000D+00  0.00000000D+00
  0.00000000D+00  0.00000000D+00  0.00000000D+00  0.00000000D+00  0.00000000D+00
  0.00000000D+00  0.00000000D+00  0.00000000D+00  0.00000000D+00  0.00000000D+00
  0.00000000D+00  0.00000000D+00  0.00000000D+00  0.00000000D+00  0.00000000D+00
  0.00000000D+00  0.00000000D+00  0.00000000D+00  0.00000000D+00 -0.85918615D-13
  0.40979758D-30 -0.11587244D-29  0.10183596D-12  0.36825293D-30  0.27413066D-29
  0.15591989D-12 -0.15976457D-29  0.73486642D-30  0.60805810D-31  0.58108316D-14
  0.12792247D-30  0.31142323D-30 -0.45997081D-14 -0.64031513D-30 -0.87561984D-30
 -0.12832787D-13  0.25654771D-30 -0.58649844D-31  0.12696214D-30  0.53854492D-15
  0.21819287D-31 -0.31693171D-31 -0.19453498D-14 -0.51300272D-31  0.93001513D-31
  0.32971501D-15 -0.14157589D-31  0.20780009D-32  0.26016810D-32 -0.45751473D-16
  0.50472263D-33  0.11402902D-32  0.97887738D-16 -0.18450977D-32 -0.36623562D-32
  0.39366681D-16  0.33092982D-33  0.24148561D-33  0.16563487D-33  0.00000000D+00
  0.00000000D+00  0.00000000D+00  0.00000000D+00  0.00000000D+00  0.00000000D+00
  0.00000000D+00  0.00000000D+00  0.00000000D+00  0.00000000D+00  0.00000000D+00
  0.00000000D+00  0.00000000D+00  0.00000000D+00  0.00000000D+00  0.00000000D+00
  0.00000000D+00  0.00000000D+00  0.00000000D+00  0.00000000D+00  0.00000000D+00
  0.00000000D+00  0.00000000D+00  0.00000000D+00  0.00000000D+00  0.00000000D+00
  0.00000000D+00  0.00000000D+00  0.00000000D+00  0.00000000D+00  0.00000000D+00
  0.00000000D+00  0.00000000D+00  0.00000000D+00  0.00000000D+00  0.00000000D+00
  0.00000000D+00  0.00000000D+00  0.00000000D+00  0.00000000D+00  0.00000000D+00
  0.00000000D+00  0.00000000D+00  0.00000000D+00  0.00000000D+00 -0.31098161D-29
  0.10435716D-28 -0.13122194D-28  0.71217425D-30 -0.31182379D-29  0.85836342D-29
  0.35393695D-13  0.71448571D-30 -0.43841178D-13 -0.19234489D-29  0.73122385D-13
  0.44220355D-28 -0.64750822D-28  0.58076009D-28 -0.86548516D-28 -0.56173664D-13
  0.12089631D-29 -0.13163104D-12 -0.31789512D-28  0.54066062D-28  0.18780471D-13
 -0.27113658D-31  0.63624445D-31 -0.68579130D-31 -0.30814588D-31 -0.24074895D-31
  0.59849434D-31  0.59960526D-15  0.13988885D-31  0.52178130D-15 -0.67771904D-32
  0.28870080D-15  0.33971571D-30 -0.28930290D-30  0.35018676D-30 -0.56767975D-30
 -0.13731376D-14 -0.72116948D-32 -0.75132870D-15 -0.22822231D-30  0.33205703D-30
  0.21244663D-15
MO    4     MO 0.0        OCC NO =    0.0025473  ORB. ENERGY =    0.000000
  0.00000000D+00  0.00000000D+00  0.00000000D+00  0.00000000D+00  0.00000000D+00
  0.00000000D+00  0.00000000D+00  0.00000000D+00  0.00000000D+00  0.00000000D+00
  0.00000000D+00  0.00000000D+00  0.00000000D+00  0.00000000D+00  0.00000000D+00
  0.00000000D+00  0.60269421D-14  0.40324913D+00 -0.34328055D-01 -0.38487163D-14
  0.58869456D+00 -0.50114775D-01  0.10269773D-14  0.11718214D+01 -0.99755577D-01
 -0.21491032D-15  0.75766815D+00 -0.64499269D-01  0.36288060D-16  0.11945805D+00
 -0.10169303D-01  0.33770810D-17  0.12592221D-02 -0.10719588D-03  0.00000000D+00
  0.00000000D+00  0.00000000D+00  0.00000000D+00  0.00000000D+00  0.00000000D+00
  0.00000000D+00  0.00000000D+00  0.00000000D+00  0.00000000D+00  0.00000000D+00
  0.00000000D+00  0.00000000D+00  0.00000000D+00  0.00000000D+00  0.00000000D+00
  0.00000000D+00  0.00000000D+00  0.00000000D+00  0.00000000D+00  0.00000000D+00
  0.00000000D+00  0.00000000D+00  0.00000000D+00  0.00000000D+00  0.00000000D+00
  0.00000000D+00  0.00000000D+00  0.00000000D+00  0.00000000D+00 -0.41331846D-13
 -0.94408477D-13 -0.14132580D-14  0.76892262D-13  0.68252180D-13  0.21930341D-14
  0.47103276D-13  0.21497325D-12  0.20467399D-14  0.17492830D-29  0.28479148D-14
  0.66183218D-14 -0.39024977D-16 -0.51955847D-14 -0.77408041D-14 -0.16999856D-15
 -0.33481598D-14 -0.12114161D-13  0.28707349D-15 -0.47968672D-30 -0.46584493D-15
  0.45055093D-15 -0.10728765D-15  0.71127579D-16 -0.19851026D-14  0.21906371D-15
  0.13264072D-14  0.63344984D-15  0.10279923D-15  0.36165549D-31  0.42252036D-16
 -0.46385942D-16  0.68054118D-17 -0.77128585D-16  0.84567514D-16 -0.13536003D-16
 -0.49627524D-16  0.54590310D-16 -0.68802326D-17 -0.21652926D-32  0.00000000D+00
  0.00000000D+00  0.00000000D+00  0.00000000D+00  0.00000000D+00  0.00000000D+00
  0.00000000D+00  0.00000000D+00  0.00000000D+00  0.00000000D+00  0.00000000D+00
  0.00000000D+00  0.00000000D+00  0.00000000D+00  0.00000000D+00  0.00000000D+00
  0.00000000D+00  0.00000000D+00  0.00000000D+00  0.00000000D+00  0.00000000D+00
  0.00000000D+00  0.00000000D+00  0.00000000D+00  0.00000000D+00  0.00000000D+00
  0.00000000D+00  0.00000000D+00  0.00000000D+00  0.00000000D+00  0.00000000D+00
  0.00000000D+00  0.00000000D+00  0.00000000D+00  0.00000000D+00  0.00000000D+00
  0.00000000D+00  0.00000000D+00  0.00000000D+00  0.00000000D+00  0.00000000D+00
  0.00000000D+00  0.00000000D+00  0.00000000D+00  0.00000000D+00 -0.12455179D-14
  0.14722505D-13  0.10439742D-13 -0.34714681D-14 -0.56528061D-14  0.16494345D-13
 -0.44785338D-13  0.29076519D-29  0.12459421D-12 -0.21537365D-29  0.18534309D-13
  0.20154371D-14 -0.77920629D-13  0.25976099D-14 -0.16147198D-12  0.48039271D-13
 -0.75391543D-30 -0.78600022D-13 -0.14406535D-14  0.93722763D-13  0.30560750D-14
 -0.20290506D-16  0.55486836D-15  0.83535760D-16 -0.10809574D-14 -0.28787962D-16
  0.14142544D-15  0.22788073D-15  0.23455264D-31  0.61592659D-15  0.87519464D-32
 -0.56602791D-15  0.11936930D-15 -0.86338107D-16 -0.77879511D-16 -0.33329702D-15
 -0.66107033D-15 -0.32207210D-31  0.92674696D-15 -0.46704729D-16  0.18103819D-15
 -0.26567663D-16
MO    5     MO 0.0        OCC NO =    0.0025473  ORB. ENERGY =    0.000000
  0.00000000D+00  0.00000000D+00  0.00000000D+00  0.00000000D+00  0.00000000D+00
  0.00000000D+00  0.00000000D+00  0.00000000D+00  0.00000000D+00  0.00000000D+00
  0.00000000D+00  0.00000000D+00  0.00000000D+00  0.00000000D+00  0.00000000D+00
  0.00000000D+00  0.10825492D-14  0.34328055D-01  0.40324913D+00  0.98701134D-15
  0.50114775D-01  0.58869456D+00 -0.10869615D-14  0.99755577D-01  0.11718214D+01
 -0.13243819D-17  0.64499269D-01  0.75766815D+00  0.55292475D-16  0.10169303D-01
  0.11945805D+00  0.54011712D-17  0.10719588D-03  0.12592221D-02  0.00000000D+00
  0.00000000D+00  0.00000000D+00  0.00000000D+00  0.00000000D+00  0.00000000D+00
  0.00000000D+00  0.00000000D+00  0.00000000D+00  0.00000000D+00  0.00000000D+00
  0.00000000D+00  0.00000000D+00  0.00000000D+00  0.00000000D+00  0.00000000D+00
  0.00000000D+00  0.00000000D+00  0.00000000D+00  0.00000000D+00  0.00000000D+00
  0.00000000D+00  0.00000000D+00  0.00000000D+00  0.00000000D+00  0.00000000D+00
  0.00000000D+00  0.00000000D+00  0.00000000D+00  0.00000000D+00  0.15469938D-13
 -0.80368665D-14  0.16601438D-13 -0.25661412D-13  0.58102161D-14 -0.25761410D-13
 -0.20748402D-13  0.18300383D-13 -0.24042903D-13 -0.11599176D-29 -0.95645356D-15
  0.56340881D-15  0.45842352D-15  0.22983016D-14 -0.65896423D-15  0.19969605D-14
  0.57105906D-15 -0.10312622D-14 -0.33722311D-14  0.53149658D-30  0.16114701D-15
  0.38354794D-16  0.12603001D-14  0.37909379D-16 -0.16898911D-15 -0.25733253D-14
 -0.52135040D-15  0.53924732D-16 -0.12075750D-14 -0.31302992D-31 -0.15381143D-16
 -0.39487727D-17 -0.79942670D-16  0.28346098D-16  0.71991186D-17  0.15900643D-15
  0.17797331D-16  0.46471996D-17  0.80821584D-16  0.11689627D-32  0.00000000D+00
  0.00000000D+00  0.00000000D+00  0.00000000D+00  0.00000000D+00  0.00000000D+00
  0.00000000D+00  0.00000000D+00  0.00000000D+00  0.00000000D+00  0.00000000D+00
  0.00000000D+00  0.00000000D+00  0.00000000D+00  0.00000000D+00  0.00000000D+00
  0.00000000D+00  0.00000000D+00  0.00000000D+00  0.00000000D+00  0.00000000D+00
  0.00000000D+00  0.00000000D+00  0.00000000D+00  0.00000000D+00  0.00000000D+00
  0.00000000D+00  0.00000000D+00  0.00000000D+00  0.00000000D+00  0.00000000D+00
  0.00000000D+00  0.00000000D+00  0.00000000D+00  0.00000000D+00  0.00000000D+00
  0.00000000D+00  0.00000000D+00  0.00000000D+00  0.00000000D+00  0.00000000D+00
  0.00000000D+00  0.00000000D+00  0.00000000D+00  0.00000000D+00  0.14631007D-13
  0.12533071D-14 -0.12263488D-12 -0.29552140D-15  0.66403096D-13  0.14041414D-14
  0.92828008D-14 -0.21606574D-28 -0.21943843D-13 -0.36179912D-29 -0.17744614D-13
 -0.23675191D-13 -0.66332781D-14 -0.30513932D-13 -0.13745892D-13 -0.11250987D-13
  0.25224565D-28  0.42803842D-13  0.16923251D-13  0.79784926D-14 -0.31552854D-14
  0.23835107D-15  0.47235196D-16 -0.98128841D-15 -0.92020444D-16  0.33817006D-15
  0.12039357D-16 -0.96552574D-17 -0.14670960D-30 -0.44942453D-15 -0.20594441D-31
  0.31033777D-15 -0.14022223D-14 -0.73498467D-17  0.91484487D-15 -0.28373126D-16
  0.16911869D-15  0.16730405D-30 -0.47086736D-15  0.54863701D-15  0.15411537D-16
  0.30174867D-16
MO    6     MO 0.0        OCC NO =    0.0001246  ORB. ENERGY =    0.000000
  0.83281825D-01  0.15711757D+00  0.26879270D+00  0.43308412D+00  0.64423990D+00
  0.84536888D+00  0.90648786D+00  0.73209255D+00  0.36953167D+00  0.62546771D-01
  0.14244542D+01 -0.83591778D+00 -0.17870018D+01 -0.16383644D+00  0.20756999D-01
  0.49884901D-03  0.00000000D+00  0.00000000D+00  0.00000000D+00  0.00000000D+00
  0.00000000D+00  0.00000000D+00  0.00000000D+00  0.00000000D+00  0.00000000D+00
  0.00000000D+00  0.00000000D+00  0.00000000D+00  0.00000000D+00  0.00000000D+00
  0.00000000D+00  0.00000000D+00  0.00000000D+00  0.00000000D+00  0.21934769D-13
 -0.32724932D-12  0.30531455D-12 -0.11241730D-15 -0.16957514D-16 -0.26857400D-13
 -0.52129009D-14  0.23473605D-12 -0.22952315D-12 -0.33983837D-15 -0.38389620D-16
  0.12211030D-13 -0.23046782D-13 -0.25231557D-13  0.48278339D-13 -0.28520754D-15
 -0.33829554D-16 -0.25972658D-14 -0.34736705D-15  0.80444171D-14 -0.76970501D-14
 -0.44301682D-16 -0.51569655D-17  0.26611487D-15 -0.51770817D-15  0.10942526D-15
  0.40828292D-15 -0.49445812D-18 -0.60476008D-19 -0.78781180D-17  0.00000000D+00
  0.00000000D+00  0.00000000D+00  0.00000000D+00  0.00000000D+00  0.00000000D+00
  0.00000000D+00  0.00000000D+00  0.00000000D+00  0.00000000D+00  0.00000000D+00
  0.00000000D+00  0.00000000D+00  0.00000000D+00  0.00000000D+00  0.00000000D+00
  0.00000000D+00  0.00000000D+00  0.00000000D+00  0.00000000D+00  0.00000000D+00
  0.00000000D+00  0.00000000D+00  0.00000000D+00  0.00000000D+00  0.00000000D+00
  0.00000000D+00  0.00000000D+00  0.00000000D+00  0.00000000D+00  0.00000000D+00
  0.00000000D+00  0.00000000D+00  0.00000000D+00  0.00000000D+00  0.00000000D+00
  0.00000000D+00  0.00000000D+00  0.00000000D+00  0.00000000D+00 -0.39528493D-12
  0.21282636D-10  0.20886501D-11 -0.21749394D-10 -0.33464852D-12 -0.12828369D-24
 -0.68153015D-30 -0.20682831D-25 -0.43960496D-27  0.28305948D-12  0.14002728D-11
 -0.80759017D-13  0.13517797D-24  0.43983214D-27 -0.33716744D-13  0.88648757D-13
 -0.44666508D-13 -0.20314423D-12 -0.11120270D-13  0.21137400D-13  0.89797986D-26
 -0.31963723D-29  0.14569555D-26  0.20165254D-28 -0.32874831D-12  0.16736033D-12
  0.76319828D-13 -0.94654504D-26 -0.19099796D-28  0.42071414D-13 -0.49692118D-15
 -0.47382861D-13  0.25908154D-14  0.50141874D-13  0.94983831D-15 -0.21570674D-27
  0.27458874D-31 -0.34604986D-28  0.17338114D-29  0.39071164D-15 -0.82770394D-14
 -0.82898453D-14  0.22724173D-27 -0.17429643D-29  0.13165223D-14  0.00000000D+00
  0.00000000D+00  0.00000000D+00  0.00000000D+00  0.00000000D+00  0.00000000D+00
  0.00000000D+00  0.00000000D+00  0.00000000D+00  0.00000000D+00  0.00000000D+00
  0.00000000D+00  0.00000000D+00  0.00000000D+00  0.00000000D+00  0.00000000D+00
  0.00000000D+00  0.00000000D+00  0.00000000D+00  0.00000000D+00  0.00000000D+00
  0.00000000D+00  0.00000000D+00  0.00000000D+00  0.00000000D+00  0.00000000D+00
  0.00000000D+00  0.00000000D+00  0.00000000D+00  0.00000000D+00  0.00000000D+00
  0.00000000D+00  0.00000000D+00  0.00000000D+00  0.00000000D+00  0.00000000D+00
  0.00000000D+00  0.00000000D+00  0.00000000D+00  0.00000000D+00  0.00000000D+00
  0.00000000D+00
MO    7     MO 0.0        OCC NO =    0.0000818  ORB. ENERGY =    0.000000
  0.00000000D+00  0.00000000D+00  0.00000000D+00  0.00000000D+00  0.00000000D+00
  0.00000000D+00  0.00000000D+00  0.00000000D+00  0.00000000D+00  0.00000000D+00
  0.00000000D+00  0.00000000D+00  0.00000000D+00  0.00000000D+00  0.00000000D+00
  0.00000000D+00 -0.69047810D-14  0.31629521D-01 -0.14494848D+01  0.40070649D-14
  0.83272510D-01 -0.38161259D+01 -0.26345411D-15  0.78801991D-01 -0.36112556D+01
 -0.18295837D-15 -0.89923130D-02  0.41209036D+00  0.25348297D-16 -0.59517927D-02
  0.27275256D+00  0.64822073D-17 -0.50837816D-04  0.23297425D-02  0.00000000D+00
  0.00000000D+00  0.00000000D+00  0.00000000D+00  0.00000000D+00  0.00000000D+00
  0.00000000D+00  0.00000000D+00  0.00000000D+00  0.00000000D+00  0.00000000D+00
  0.00000000D+00  0.00000000D+00  0.00000000D+00  0.00000000D+00  0.00000000D+00
  0.00000000D+00  0.00000000D+00  0.00000000D+00  0.00000000D+00  0.00000000D+00
  0.00000000D+00  0.00000000D+00  0.00000000D+00  0.00000000D+00  0.00000000D+00
  0.00000000D+00  0.00000000D+00  0.00000000D+00  0.00000000D+00  0.25562253D-12
 -0.44301030D-14  0.17036928D-12 -0.17589475D-12  0.76360737D-14 -0.35505946D-12
 -0.59097285D-12  0.56542353D-14 -0.15604836D-12 -0.72751336D-30 -0.53497218D-13
  0.68601524D-15 -0.10922459D-13  0.70982514D-13 -0.85185691D-15  0.17074656D-13
  0.89509139D-13 -0.12061888D-14  0.15692722D-13  0.12017732D-30  0.71238953D-14
 -0.21362573D-15  0.53040329D-14 -0.96148867D-14  0.38089847D-15 -0.95360570D-14
 -0.11756799D-13  0.25997871D-15 -0.63760418D-14 -0.20693913D-31 -0.32109150D-15
  0.63926246D-17 -0.30123550D-15  0.25437811D-15 -0.74059969D-17  0.47137662D-15
  0.70889639D-15 -0.11771877D-16  0.43232989D-15 -0.10909883D-33  0.00000000D+00
  0.00000000D+00  0.00000000D+00  0.00000000D+00  0.00000000D+00  0.00000000D+00
  0.00000000D+00  0.00000000D+00  0.00000000D+00  0.00000000D+00  0.00000000D+00
  0.00000000D+00  0.00000000D+00  0.00000000D+00  0.00000000D+00  0.00000000D+00
  0.00000000D+00  0.00000000D+00  0.00000000D+00  0.00000000D+00  0.00000000D+00
  0.00000000D+00  0.00000000D+00  0.00000000D+00  0.00000000D+00  0.00000000D+00
  0.00000000D+00  0.00000000D+00  0.00000000D+00  0.00000000D+00  0.00000000D+00
  0.00000000D+00  0.00000000D+00  0.00000000D+00  0.00000000D+00  0.00000000D+00
  0.00000000D+00  0.00000000D+00  0.00000000D+00  0.00000000D+00  0.00000000D+00
  0.00000000D+00  0.00000000D+00  0.00000000D+00  0.00000000D+00 -0.68049344D-13
  0.16993698D-14  0.34481249D-12 -0.28677191D-14 -0.13867246D-12  0.74877537D-15
  0.40025883D-12  0.10396553D-28 -0.21790658D-11  0.38277526D-29 -0.18440824D-12
  0.33568095D-12 -0.15930615D-14 -0.20240272D-12 -0.46200346D-14 -0.74162384D-13
 -0.14224306D-28  0.10951718D-11 -0.13410669D-12  0.25755275D-14 -0.10210094D-12
  0.13628896D-14 -0.45414302D-16 -0.71304754D-14  0.12856067D-15  0.22000236D-14
 -0.25176346D-16 -0.92398661D-16 -0.23875249D-30 -0.12137366D-14 -0.56580312D-31
  0.76846606D-14 -0.64984204D-14 -0.11319621D-15  0.81912848D-14  0.12320279D-15
  0.58937618D-15  0.29533281D-30 -0.14964742D-13  0.18839961D-14 -0.42735359D-16
  0.14375366D-14
MO    8     MO 0.0        OCC NO =    0.0000818  ORB. ENERGY =    0.000000
  0.00000000D+00  0.00000000D+00  0.00000000D+00  0.00000000D+00  0.00000000D+00
  0.00000000D+00  0.00000000D+00  0.00000000D+00  0.00000000D+00  0.00000000D+00
  0.00000000D+00  0.00000000D+00  0.00000000D+00  0.00000000D+00  0.00000000D+00
  0.00000000D+00 -0.14498298D+01 -0.28510050D-16 -0.38690952D-15 -0.38170344D+01
 -0.99059203D-16 -0.67244962D-16 -0.36121153D+01 -0.75052119D-16 -0.11684154D-15
  0.41218846D+00 -0.46385205D-16 -0.79191291D-16  0.27281749D+00 -0.95617679D-17
 -0.16684349D-16  0.23302971D-02 -0.87316094D-18 -0.16480999D-17  0.00000000D+00
  0.00000000D+00  0.00000000D+00  0.00000000D+00  0.00000000D+00  0.00000000D+00
  0.00000000D+00  0.00000000D+00  0.00000000D+00  0.00000000D+00  0.00000000D+00
  0.00000000D+00  0.00000000D+00  0.00000000D+00  0.00000000D+00  0.00000000D+00
  0.00000000D+00  0.00000000D+00  0.00000000D+00  0.00000000D+00  0.00000000D+00
  0.00000000D+00  0.00000000D+00  0.00000000D+00  0.00000000D+00  0.00000000D+00
  0.00000000D+00  0.00000000D+00  0.00000000D+00  0.00000000D+00  0.91744828D-13
  0.71367007D-29 -0.57095998D-29 -0.10479069D-13 -0.12841799D-28  0.15752034D-28
 -0.26475542D-12 -0.85683034D-29  0.13767648D-29 -0.18141514D-29 -0.27777071D-13
 -0.37683420D-30  0.62499601D-30  0.54738288D-13  0.12695198D-29 -0.21294217D-29
  0.28592925D-13 -0.13901719D-30  0.25443363D-30  0.54875883D-31  0.53175135D-14
 -0.67216756D-31 -0.27649962D-30 -0.98923069D-14  0.92819756D-31  0.51033341D-30
 -0.60602337D-14  0.10883051D-30  0.31916546D-30  0.15560112D-31 -0.29297525D-15
  0.65397006D-32  0.12560409D-31  0.51055189D-15 -0.11741437D-31 -0.19633277D-31
  0.36837386D-15 -0.78776642D-32 -0.18047951D-31 -0.29078961D-33  0.00000000D+00
  0.00000000D+00  0.00000000D+00  0.00000000D+00  0.00000000D+00  0.00000000D+00
  0.00000000D+00  0.00000000D+00  0.00000000D+00  0.00000000D+00  0.00000000D+00
  0.00000000D+00  0.00000000D+00  0.00000000D+00  0.00000000D+00  0.00000000D+00
  0.00000000D+00  0.00000000D+00  0.00000000D+00  0.00000000D+00  0.00000000D+00
  0.00000000D+00  0.00000000D+00  0.00000000D+00  0.00000000D+00  0.00000000D+00
  0.00000000D+00  0.00000000D+00  0.00000000D+00  0.00000000D+00  0.00000000D+00
  0.00000000D+00  0.00000000D+00  0.00000000D+00  0.00000000D+00  0.00000000D+00
  0.00000000D+00  0.00000000D+00  0.00000000D+00  0.00000000D+00  0.00000000D+00
  0.00000000D+00  0.00000000D+00  0.00000000D+00  0.00000000D+00 -0.31898831D-28
 -0.21875727D-28  0.21026325D-27  0.24155082D-28 -0.74545845D-28 -0.10077676D-28
 -0.31889018D-13 -0.51034240D-31 -0.17213565D-12 -0.15123975D-30 -0.10751575D-12
  0.10872506D-27  0.58789118D-28 -0.18351467D-27  0.76621674D-28  0.12115658D-12
  0.20227399D-30  0.27241005D-12 -0.23776754D-28 -0.48109024D-28 -0.39356664D-13
  0.30744468D-30  0.23372490D-30 -0.21398497D-29 -0.17550803D-30  0.88473687D-30