 title calculation of HelFey forces
GAUSSIAN            254 MOL ORBITALS    382 PRIMITIVES        2 NUCLEI
  He   1    (CENTRE  1)   0.00000000  0.00000000  1.88972612  CHARGE =  2.0
  He   2    (CENTRE  2)   0.00000000  0.00000000 -1.88972612  CHARGE =  2.0
CENTRE ASSIGNMENTS    1  1  1  1  1  1  1  1  1  1  1  1  1  1  1  1  1  1  1  1
CENTRE ASSIGNMENTS    1  1  1  1  1  1  1  1  1  1  1  1  1  1  1  1  1  1  1  1
CENTRE ASSIGNMENTS    1  1  1  1  1  1  1  1  1  1  1  1  1  1  1  1  1  1  1  1
CENTRE ASSIGNMENTS    1  1  1  1  1  1  1  1  1  1  1  1  1  1  1  1  1  1  1  1
CENTRE ASSIGNMENTS    1  1  1  1  1  1  1  1  1  1  1  1  1  1  1  1  1  1  1  1
CENTRE ASSIGNMENTS    1  1  1  1  1  1  1  1  1  1  1  1  1  1  1  1  1  1  1  1
CENTRE ASSIGNMENTS    1  1  1  1  1  1  1  1  1  1  1  1  1  1  1  1  1  1  1  1
CENTRE ASSIGNMENTS    1  1  1  1  1  1  1  1  1  1  1  1  1  1  1  1  1  1  1  1
CENTRE ASSIGNMENTS    1  1  1  1  1  1  1  1  1  1  1  1  1  1  1  1  1  1  1  1
CENTRE ASSIGNMENTS    1  1  1  1  1  1  1  1  1  1  1  2  2  2  2  2  2  2  2  2
CENTRE ASSIGNMENTS    2  2  2  2  2  2  2  2  2  2  2  2  2  2  2  2  2  2  2  2
CENTRE ASSIGNMENTS    2  2  2  2  2  2  2  2  2  2  2  2  2  2  2  2  2  2  2  2
CENTRE ASSIGNMENTS    2  2  2  2  2  2  2  2  2  2  2  2  2  2  2  2  2  2  2  2
CENTRE ASSIGNMENTS    2  2  2  2  2  2  2  2  2  2  2  2  2  2  2  2  2  2  2  2
CENTRE ASSIGNMENTS    2  2  2  2  2  2  2  2  2  2  2  2  2  2  2  2  2  2  2  2
CENTRE ASSIGNMENTS    2  2  2  2  2  2  2  2  2  2  2  2  2  2  2  2  2  2  2  2
CENTRE ASSIGNMENTS    2  2  2  2  2  2  2  2  2  2  2  2  2  2  2  2  2  2  2  2
CENTRE ASSIGNMENTS    2  2  2  2  2  2  2  2  2  2  2  2  2  2  2  2  2  2  2  2
CENTRE ASSIGNMENTS    2  2  2  2  2  2  2  2  2  2  2  2  2  2  2  2  2  2  2  2
CENTRE ASSIGNMENTS    2  2
TYPE ASSIGNMENTS      1  1  1  1  1  1  1  1  1  1  1  1  1  1  1  1  2  3  4  2
TYPE ASSIGNMENTS      3  4  2  3  4  2  3  4  2  3  4  2  3  4  5  6  7  8  9 10
TYPE ASSIGNMENTS      5  6  7  8  9 10  5  6  7  8  9 10  5  6  7  8  9 10  5  6
TYPE ASSIGNMENTS      7  8  9 10 11 12 13 17 14 15 18 19 16 20 11 12 13 17 14 15
TYPE ASSIGNMENTS     18 19 16 20 11 12 13 17 14 15 18 19 16 20 11 12 13 17 14 15
TYPE ASSIGNMENTS     18 19 16 20 23 29 32 27 22 28 35 34 26 31 33 30 25 24 21 23
TYPE ASSIGNMENTS     29 32 27 22 28 35 34 26 31 33 30 25 24 21 23 29 32 27 22 28
TYPE ASSIGNMENTS     35 34 26 31 33 30 25 24 21 36 37 38 39 40 41 42 43 44 45 46
TYPE ASSIGNMENTS     47 48 49 50 51 52 53 54 55 56 36 37 38 39 40 41 42 43 44 45
TYPE ASSIGNMENTS     46 47 48 49 50 51 52 53 54 55 56  1  1  1  1  1  1  1  1  1
TYPE ASSIGNMENTS      1  1  1  1  1  1  1  2  3  4  2  3  4  2  3  4  2  3  4  2
TYPE ASSIGNMENTS      3  4  2  3  4  5  6  7  8  9 10  5  6  7  8  9 10  5  6  7
TYPE ASSIGNMENTS      8  9 10  5  6  7  8  9 10  5  6  7  8  9 10 11 12 13 17 14
TYPE ASSIGNMENTS     15 18 19 16 20 11 12 13 17 14 15 18 19 16 20 11 12 13 17 14
TYPE ASSIGNMENTS     15 18 19 16 20 11 12 13 17 14 15 18 19 16 20 23 29 32 27 22
TYPE ASSIGNMENTS     28 35 34 26 31 33 30 25 24 21 23 29 32 27 22 28 35 34 26 31
TYPE ASSIGNMENTS     33 30 25 24 21 23 29 32 27 22 28 35 34 26 31 33 30 25 24 21
TYPE ASSIGNMENTS     36 37 38 39 40 41 42 43 44 45 46 47 48 49 50 51 52 53 54 55
TYPE ASSIGNMENTS     56 36 37 38 39 40 41 42 43 44 45 46 47 48 49 50 51 52 53 54
TYPE ASSIGNMENTS     55 56
EXPONENTS  0.4785000D+04 0.7170000D+03 0.1632000D+03 0.4626000D+02 0.1510000D+02
EXPONENTS  0.5437000D+01 0.2088000D+01 0.8297000D+00 0.3366000D+00 0.1369000D+00
EXPONENTS  0.5437000D+01 0.2088000D+01 0.8297000D+00 0.3366000D+00 0.1369000D+00
EXPONENTS  0.4473000D-01 0.1610400D+02 0.1610400D+02 0.1610400D+02 0.6342000D+01
EXPONENTS  0.6342000D+01 0.6342000D+01 0.2498000D+01 0.2498000D+01 0.2498000D+01
EXPONENTS  0.9840000D+00 0.9840000D+00 0.9840000D+00 0.3870000D+00 0.3870000D+00
EXPONENTS  0.3870000D+00 0.1280000D+00 0.1280000D+00 0.1280000D+00 0.1249800D+02
EXPONENTS  0.1249800D+02 0.1249800D+02 0.1249800D+02 0.1249800D+02 0.1249800D+02
EXPONENTS  0.4886000D+01 0.4886000D+01 0.4886000D+01 0.4886000D+01 0.4886000D+01
EXPONENTS  0.4886000D+01 0.1910000D+01 0.1910000D+01 0.1910000D+01 0.1910000D+01
EXPONENTS  0.1910000D+01 0.1910000D+01 0.7470000D+00 0.7470000D+00 0.7470000D+00
EXPONENTS  0.7470000D+00 0.7470000D+00 0.7470000D+00 0.2410000D+00 0.2410000D+00
EXPONENTS  0.2410000D+00 0.2410000D+00 0.2410000D+00 0.2410000D+00 0.9276000D+01
EXPONENTS  0.9276000D+01 0.9276000D+01 0.9276000D+01 0.9276000D+01 0.9276000D+01
EXPONENTS  0.9276000D+01 0.9276000D+01 0.9276000D+01 0.9276000D+01 0.3462000D+01
EXPONENTS  0.3462000D+01 0.3462000D+01 0.3462000D+01 0.3462000D+01 0.3462000D+01
EXPONENTS  0.3462000D+01 0.3462000D+01 0.3462000D+01 0.3462000D+01 0.1292000D+01
EXPONENTS  0.1292000D+01 0.1292000D+01 0.1292000D+01 0.1292000D+01 0.1292000D+01
EXPONENTS  0.1292000D+01 0.1292000D+01 0.1292000D+01 0.1292000D+01 0.4070000D+00
EXPONENTS  0.4070000D+00 0.4070000D+00 0.4070000D+00 0.4070000D+00 0.4070000D+00
EXPONENTS  0.4070000D+00 0.4070000D+00 0.4070000D+00 0.4070000D+00 0.6586000D+01
EXPONENTS  0.6586000D+01 0.6586000D+01 0.6586000D+01 0.6586000D+01 0.6586000D+01
EXPONENTS  0.6586000D+01 0.6586000D+01 0.6586000D+01 0.6586000D+01 0.6586000D+01
EXPONENTS  0.6586000D+01 0.6586000D+01 0.6586000D+01 0.6586000D+01 0.2236000D+01
EXPONENTS  0.2236000D+01 0.2236000D+01 0.2236000D+01 0.2236000D+01 0.2236000D+01
EXPONENTS  0.2236000D+01 0.2236000D+01 0.2236000D+01 0.2236000D+01 0.2236000D+01
EXPONENTS  0.2236000D+01 0.2236000D+01 0.2236000D+01 0.2236000D+01 0.6860000D+00
EXPONENTS  0.6860000D+00 0.6860000D+00 0.6860000D+00 0.6860000D+00 0.6860000D+00
EXPONENTS  0.6860000D+00 0.6860000D+00 0.6860000D+00 0.6860000D+00 0.6860000D+00
EXPONENTS  0.6860000D+00 0.6860000D+00 0.6860000D+00 0.6860000D+00 0.4159000D+01
EXPONENTS  0.4159000D+01 0.4159000D+01 0.4159000D+01 0.4159000D+01 0.4159000D+01
EXPONENTS  0.4159000D+01 0.4159000D+01 0.4159000D+01 0.4159000D+01 0.4159000D+01
EXPONENTS  0.4159000D+01 0.4159000D+01 0.4159000D+01 0.4159000D+01 0.4159000D+01
EXPONENTS  0.4159000D+01 0.4159000D+01 0.4159000D+01 0.4159000D+01 0.4159000D+01
EXPONENTS  0.1016000D+01 0.1016000D+01 0.1016000D+01 0.1016000D+01 0.1016000D+01
EXPONENTS  0.1016000D+01 0.1016000D+01 0.1016000D+01 0.1016000D+01 0.1016000D+01
EXPONENTS  0.1016000D+01 0.1016000D+01 0.1016000D+01 0.1016000D+01 0.1016000D+01
EXPONENTS  0.1016000D+01 0.1016000D+01 0.1016000D+01 0.1016000D+01 0.1016000D+01
EXPONENTS  0.1016000D+01 0.4785000D+04 0.7170000D+03 0.1632000D+03 0.4626000D+02
EXPONENTS  0.1510000D+02 0.5437000D+01 0.2088000D+01 0.8297000D+00 0.3366000D+00
EXPONENTS  0.1369000D+00 0.5437000D+01 0.2088000D+01 0.8297000D+00 0.3366000D+00
EXPONENTS  0.1369000D+00 0.4473000D-01 0.1610400D+02 0.1610400D+02 0.1610400D+02
EXPONENTS  0.6342000D+01 0.6342000D+01 0.6342000D+01 0.2498000D+01 0.2498000D+01
EXPONENTS  0.2498000D+01 0.9840000D+00 0.9840000D+00 0.9840000D+00 0.3870000D+00
EXPONENTS  0.3870000D+00 0.3870000D+00 0.1280000D+00 0.1280000D+00 0.1280000D+00
EXPONENTS  0.1249800D+02 0.1249800D+02 0.1249800D+02 0.1249800D+02 0.1249800D+02
EXPONENTS  0.1249800D+02 0.4886000D+01 0.4886000D+01 0.4886000D+01 0.4886000D+01
EXPONENTS  0.4886000D+01 0.4886000D+01 0.1910000D+01 0.1910000D+01 0.1910000D+01
EXPONENTS  0.1910000D+01 0.1910000D+01 0.1910000D+01 0.7470000D+00 0.7470000D+00
EXPONENTS  0.7470000D+00 0.7470000D+00 0.7470000D+00 0.7470000D+00 0.2410000D+00
EXPONENTS  0.2410000D+00 0.2410000D+00 0.2410000D+00 0.2410000D+00 0.2410000D+00
EXPONENTS  0.9276000D+01 0.9276000D+01 0.9276000D+01 0.9276000D+01 0.9276000D+01
EXPONENTS  0.9276000D+01 0.9276000D+01 0.9276000D+01 0.9276000D+01 0.9276000D+01
EXPONENTS  0.3462000D+01 0.3462000D+01 0.3462000D+01 0.3462000D+01 0.3462000D+01
EXPONENTS  0.3462000D+01 0.3462000D+01 0.3462000D+01 0.3462000D+01 0.3462000D+01
EXPONENTS  0.1292000D+01 0.1292000D+01 0.1292000D+01 0.1292000D+01 0.1292000D+01
EXPONENTS  0.1292000D+01 0.1292000D+01 0.1292000D+01 0.1292000D+01 0.1292000D+01
EXPONENTS  0.4070000D+00 0.4070000D+00 0.4070000D+00 0.4070000D+00 0.4070000D+00
EXPONENTS  0.4070000D+00 0.4070000D+00 0.4070000D+00 0.4070000D+00 0.4070000D+00
EXPONENTS  0.6586000D+01 0.6586000D+01 0.6586000D+01 0.6586000D+01 0.6586000D+01
EXPONENTS  0.6586000D+01 0.6586000D+01 0.6586000D+01 0.6586000D+01 0.6586000D+01
EXPONENTS  0.6586000D+01 0.6586000D+01 0.6586000D+01 0.6586000D+01 0.6586000D+01
EXPONENTS  0.2236000D+01 0.2236000D+01 0.2236000D+01 0.2236000D+01 0.2236000D+01
EXPONENTS  0.2236000D+01 0.2236000D+01 0.2236000D+01 0.2236000D+01 0.2236000D+01
EXPONENTS  0.2236000D+01 0.2236000D+01 0.2236000D+01 0.2236000D+01 0.2236000D+01
EXPONENTS  0.6860000D+00 0.6860000D+00 0.6860000D+00 0.6860000D+00 0.6860000D+00
EXPONENTS  0.6860000D+00 0.6860000D+00 0.6860000D+00 0.6860000D+00 0.6860000D+00
EXPONENTS  0.6860000D+00 0.6860000D+00 0.6860000D+00 0.6860000D+00 0.6860000D+00
EXPONENTS  0.4159000D+01 0.4159000D+01 0.4159000D+01 0.4159000D+01 0.4159000D+01
EXPONENTS  0.4159000D+01 0.4159000D+01 0.4159000D+01 0.4159000D+01 0.4159000D+01
EXPONENTS  0.4159000D+01 0.4159000D+01 0.4159000D+01 0.4159000D+01 0.4159000D+01
EXPONENTS  0.4159000D+01 0.4159000D+01 0.4159000D+01 0.4159000D+01 0.4159000D+01
EXPONENTS  0.4159000D+01 0.1016000D+01 0.1016000D+01 0.1016000D+01 0.1016000D+01
EXPONENTS  0.1016000D+01 0.1016000D+01 0.1016000D+01 0.1016000D+01 0.1016000D+01
EXPONENTS  0.1016000D+01 0.1016000D+01 0.1016000D+01 0.1016000D+01 0.1016000D+01
EXPONENTS  0.1016000D+01 0.1016000D+01 0.1016000D+01 0.1016000D+01 0.1016000D+01
EXPONENTS  0.1016000D+01 0.1016000D+01
MO    1     MO 0.0        OCC NO =    1.9843203  ORB. ENERGY =    0.000000
  0.17157767D-01  0.32369448D-01  0.55376820D-01  0.89224229D-01  0.13272666D+00
  0.17416336D+00  0.18675513D+00  0.15082611D+00  0.76131119D-01  0.12885920D-01
  0.69730756D-03 -0.89692395D-04 -0.20516339D-02 -0.12826467D-02 -0.48272201D-03
  0.35777729D-04  0.19562751D-14 -0.20739837D-15 -0.71865146D-03  0.36564994D-14
  0.20444513D-15 -0.70918474D-03 -0.12433529D-14 -0.13560876D-15 -0.10133102D-02
 -0.36676441D-16  0.77254021D-16 -0.10018525D-02  0.12573621D-15 -0.23822508D-16
 -0.59159972D-03 -0.42352473D-16 -0.12656457D-16 -0.10251317D-04  0.43680692D-04
  0.43680692D-04 -0.87361383D-04 -0.38022620D-31  0.52719213D-15  0.32652370D-15
 -0.22900255D-03 -0.22900255D-03  0.45800509D-03 -0.18169236D-31  0.20909626D-14
 -0.19715448D-15 -0.67407560D-04 -0.67407560D-04  0.13481512D-03  0.25823421D-33
 -0.12782261D-14  0.97393386D-16 -0.14647941D-03 -0.14647941D-03  0.29295881D-03
 -0.28466732D-32  0.23004473D-15 -0.61514181D-16 -0.25308022D-04 -0.25308022D-04
  0.50616044D-04  0.13706481D-33  0.19668440D-16  0.45473843D-16 -0.54919170D-15
 -0.95413081D-15 -0.23501429D-03  0.15289523D-13 -0.95413081D-15  0.35252143D-03
 -0.13641948D-13  0.38165232D-14  0.35252143D-03  0.26587209D-30  0.27326125D-15
  0.30185717D-15  0.10979833D-04 -0.26903883D-14  0.30185717D-15 -0.16469750D-04
  0.18706045D-14 -0.12074287D-14 -0.16469750D-04 -0.27088302D-31 -0.11550279D-15
 -0.73076770D-16 -0.85790247D-04  0.16035972D-15 -0.73076770D-16  0.12868537D-03
  0.18614865D-15  0.29230708D-15  0.12868537D-03  0.85560144D-32  0.19682679D-16
  0.16951716D-16 -0.26876937D-04  0.10676143D-16  0.16951716D-16  0.40315406D-04
 -0.69724179D-16 -0.67806862D-16  0.40315406D-04 -0.59638839D-33  0.88295004D-05
  0.44448008D-14 -0.26488501D-04 -0.33336006D-14  0.33110626D-05  0.15440939D-13
  0.18941568D-30 -0.11768748D-13 -0.31579527D-31 -0.26488501D-04 -0.33336006D-14
  0.66221254D-05 -0.11518023D-13 -0.31559033D-31  0.33110627D-05  0.11606291D-04
 -0.68775586D-15 -0.34818874D-04  0.51581690D-15  0.43523593D-05 -0.18139811D-14
 -0.23406321D-31  0.13862734D-14  0.39025868D-32 -0.34818874D-04  0.51581690D-15
  0.87047186D-05  0.13518900D-14  0.38995202D-32  0.43523593D-05  0.19876013D-04
  0.81160572D-16 -0.59628040D-04 -0.60870429D-16  0.74535050D-05  0.10744732D-15
  0.19710951D-33 -0.82605307D-16 -0.32953840D-34 -0.59628040D-04 -0.60870429D-16
  0.14907010D-04 -0.79912218D-16 -0.32749331D-34  0.74535050D-05  0.14142201D-03
  0.12398369D-14 -0.70711007D-03 -0.18597553D-14  0.26516628D-03  0.15497961D-15
  0.67363965D-15  0.46367624D-31 -0.11072906D-14 -0.23186440D-31  0.96308846D-16
 -0.70711007D-03 -0.18597553D-14  0.53033255D-03  0.30995922D-15 -0.97818244D-15
 -0.23181184D-31  0.17647917D-15  0.26516628D-03  0.15497961D-15  0.80170327D-16
 -0.27661046D-04 -0.68438397D-16  0.13830523D-03  0.10265760D-15 -0.51864461D-04
 -0.85547997D-17 -0.60249031D-16  0.44004741D-33  0.94210748D-16 -0.21986923D-33
 -0.80107790D-17  0.13830523D-03  0.10265760D-15 -0.10372892D-03 -0.17109599D-16
  0.89094480D-16 -0.22017818D-33 -0.15382025D-16 -0.51864461D-04 -0.85547997D-17
 -0.73712455D-17  0.17157767D-01  0.32369448D-01  0.55376820D-01  0.89224229D-01
  0.13272666D+00  0.17416336D+00  0.18675513D+00  0.15082611D+00  0.76131119D-01
  0.12885920D-01  0.69730756D-03 -0.89692395D-04 -0.20516339D-02 -0.12826467D-02
 -0.48272201D-03  0.35777729D-04  0.24057734D-14  0.24212175D-15  0.71865146D-03
  0.32132947D-14 -0.23878018D-15  0.70918474D-03 -0.94914054D-15  0.15863668D-15
  0.10133102D-02 -0.20512878D-15 -0.91212096D-16  0.10018525D-02  0.18017556D-15
  0.30632824D-16  0.59159972D-03 -0.18079350D-16  0.11618157D-16  0.10251317D-04
  0.43680692D-04  0.43680692D-04 -0.87361383D-04 -0.53957162D-31 -0.31477596D-15
 -0.11426671D-15 -0.22900255D-03 -0.22900255D-03  0.45800509D-03  0.13204667D-31
 -0.22381778D-14  0.50078042D-16 -0.67407560D-04 -0.67407560D-04  0.13481512D-03
 -0.15780630D-31  0.13787996D-14  0.30980175D-17 -0.14647941D-03 -0.14647941D-03
  0.29295881D-03 -0.22700228D-32 -0.32608764D-15 -0.34490909D-16 -0.25308022D-04
 -0.25308022D-04  0.50616044D-04 -0.47349131D-34  0.68400485D-16  0.42595687D-16
  0.11433194D-14  0.73830918D-15  0.23501429D-03  0.16982034D-13  0.73830918D-15
 -0.35252143D-03 -0.20411992D-13 -0.29532367D-14 -0.35252143D-03  0.65724418D-31
 -0.26549448D-15 -0.23686368D-15 -0.10979833D-04 -0.32291440D-14 -0.23686368D-15
  0.16469750D-04  0.40256274D-14  0.94745470D-15  0.16469750D-04 -0.84080026D-32
  0.17785077D-16  0.60199621D-16  0.85790247D-04  0.29364759D-15  0.60199621D-16
 -0.12868537D-03 -0.34700282D-15 -0.24079849D-15 -0.12868537D-03 -0.13749476D-32
 -0.13093030D-16 -0.15823556D-16  0.26876937D-04 -0.22099565D-16 -0.15823556D-16
 -0.40315406D-04  0.61378654D-16  0.63294225D-16 -0.40315406D-04 -0.36918077D-33
  0.88295005D-05  0.39304807D-14 -0.26488501D-04 -0.29478605D-14  0.33110626D-05
 -0.70655634D-14 -0.27235238D-30  0.54872166D-14  0.45392823D-31 -0.26488502D-04
 -0.29478605D-14  0.66221253D-05  0.52364912D-14  0.45391303D-31  0.33110627D-05
  0.11606291D-04 -0.61454670D-15 -0.34818874D-04  0.46091003D-15  0.43523593D-05
  0.51165584D-15  0.22680144D-31 -0.40952943D-15 -0.37801083D-32 -0.34818874D-04
  0.46091003D-15  0.87047186D-05 -0.37514603D-15 -0.37799397D-32  0.43523593D-05
  0.19876013D-04  0.75982769D-16 -0.59628040D-04 -0.56987077D-16  0.74535050D-05
  0.49695636D-16 -0.11863737D-32 -0.35251910D-16  0.19773452D-33 -0.59628040D-04
 -0.56987077D-16  0.14907010D-04 -0.37944999D-16  0.19772340D-33  0.74535050D-05
 -0.14142201D-03 -0.11285098D-14  0.70711007D-03  0.16927647D-14 -0.26516628D-03
 -0.14106372D-15 -0.16947104D-14 -0.11503565D-30  0.24452344D-14  0.57517822D-31
 -0.19973490D-15  0.70711007D-03  0.16927647D-14 -0.53033255D-03 -0.28212745D-15
  0.25743426D-14  0.57517831D-31 -0.41560833D-15 -0.26516628D-03 -0.14106372D-15
 -0.21587342D-15  0.27661046D-04  0.63667342D-16 -0.13830523D-03 -0.95501013D-16
  0.51864461D-04  0.79584177D-17  0.71855712D-16 -0.14504422D-32 -0.10394637D-15
  0.72521251D-33  0.85023139D-17 -0.13830523D-03 -0.95501013D-16  0.10372892D-03
  0.15916835D-16 -0.10906263D-15  0.72522970D-33  0.17644161D-16  0.51864461D-04
  0.79584177D-17  0.91418474D-17
MO    2     MO 0.0        OCC NO =    1.9834813  ORB. ENERGY =    0.000000
  0.17802198D-01  0.33585215D-01  0.57456723D-01  0.92575411D-01  0.13771175D+00
  0.18070478D+00  0.19376948D+00  0.15649100D+00  0.78990535D-01  0.13369904D-01
  0.96579691D-03  0.47068704D-03 -0.11121414D-02  0.29711811D-03  0.94466536D-03
  0.54614444D-04 -0.22732747D-14  0.21685819D-15  0.74560278D-03  0.30644823D-14
 -0.21379950D-15  0.66128309D-03 -0.72403719D-15  0.14185945D-15  0.99418657D-03
 -0.31530248D-15 -0.80864452D-16  0.91226357D-03  0.19851225D-15  0.24923893D-16
  0.55881657D-03 -0.96281000D-17  0.13316120D-16 -0.12471646D-04 -0.31390438D-04
 -0.31390438D-04  0.62780877D-04  0.10024628D-31  0.11131247D-13 -0.34596618D-15
  0.21670032D-03  0.21670032D-03 -0.43340064D-03  0.40435329D-31  0.10448190D-14
  0.20873022D-15  0.75785462D-04  0.75785462D-04 -0.15157092D-03  0.12479513D-31
 -0.14295643D-15 -0.10288274D-15  0.12998613D-03  0.12998613D-03 -0.25997225D-03
  0.41589110D-32  0.41488641D-15  0.64744050D-16  0.10886544D-04  0.10886544D-04
 -0.21773089D-04 -0.54024903D-33 -0.78616468D-16 -0.47767246D-16  0.73922085D-13
  0.10008823D-14  0.20418411D-03 -0.20522516D-12  0.10008823D-14 -0.30627617D-03
 -0.16541095D-13 -0.40035293D-14 -0.30627617D-03 -0.12975828D-30 -0.13786934D-13
 -0.31664708D-15  0.36613712D-05  0.38452644D-13 -0.31664708D-15 -0.54920568D-05
  0.29081587D-14  0.12665883D-14 -0.54920567D-05  0.21705348D-31  0.13025594D-14
  0.76658150D-16  0.74127739D-04 -0.35611189D-14  0.76658150D-16 -0.11119161D-03
 -0.34655941D-15 -0.30663260D-15 -0.11119161D-03  0.57628922D-33 -0.58993967D-16
 -0.17785522D-16  0.77145336D-05  0.99885913D-16 -0.17785522D-16 -0.11571800D-04
  0.77095988D-16  0.71142089D-16 -0.11571800D-04  0.20388093D-32  0.97547007D-04
 -0.46568603D-14 -0.29264102D-03  0.34926452D-14  0.36580127D-04  0.41546533D-14
 -0.68574862D-31  0.27958471D-14  0.11426388D-31 -0.29264102D-03  0.34926452D-14
  0.73160255D-04 -0.50866023D-14  0.11431899D-31  0.36580128D-04 -0.40893331D-04
  0.72061403D-15  0.12267999D-03 -0.54046052D-15 -0.15334999D-04  0.27981350D-15
  0.19049133D-31 -0.84248059D-15 -0.31744227D-32  0.12267999D-03 -0.54046052D-15
 -0.30669998D-04  0.10133650D-17 -0.31752884D-32 -0.15334999D-04 -0.47710358D-05
 -0.85065383D-16  0.14313107D-04  0.63799037D-16 -0.17891384D-05 -0.72498419D-16
 -0.25450267D-32  0.93958560D-16  0.42414221D-33  0.14313107D-04  0.63799037D-16
 -0.35782769D-05  0.41178899D-16  0.42420003D-33 -0.17891384D-05 -0.99788017D-04
 -0.12980003D-14  0.49894009D-03  0.19470004D-14 -0.18710253D-03 -0.16225004D-15
 -0.10954937D-14 -0.66965895D-31  0.33030108D-14  0.33481031D-31 -0.34440799D-15
  0.49894009D-03  0.19470004D-14 -0.37420506D-03 -0.32450007D-15  0.10899839D-14
  0.33484864D-31 -0.41218761D-15 -0.18710253D-03 -0.16225004D-15 -0.67779625D-16
  0.19494360D-04  0.71665927D-16 -0.97471802D-04 -0.10749889D-15  0.36551926D-04
  0.89582409D-17  0.89365221D-16  0.18193872D-32 -0.20039343D-15 -0.90959736D-33
  0.19463852D-16 -0.97471802D-04 -0.10749889D-15  0.73103852D-04  0.17916482D-16
 -0.11193263D-15 -0.90978987D-33  0.27870105D-16  0.36551926D-04  0.89582409D-17
  0.84062528D-17 -0.17802198D-01 -0.33585215D-01 -0.57456723D-01 -0.92575411D-01
 -0.13771175D+00 -0.18070478D+00 -0.19376948D+00 -0.15649100D+00 -0.78990535D-01
 -0.13369904D-01 -0.96579691D-03 -0.47068704D-03  0.11121414D-02 -0.29711811D-03
 -0.94466536D-03 -0.54614444D-04 -0.27438067D-14 -0.25367385D-15  0.74560278D-03
  0.35284979D-14  0.25021611D-15  0.66128309D-03 -0.10320873D-14 -0.16619064D-15
  0.99418657D-03 -0.13883751D-15  0.95600525D-16  0.91226357D-03  0.14152629D-15
 -0.32062064D-16  0.55881657D-03 -0.35162339D-16 -0.12218119D-16 -0.12471646D-04
  0.31390438D-04  0.31390438D-04 -0.62780877D-04 -0.15976515D-31 -0.11361763D-13
  0.11544984D-15 -0.21670032D-03 -0.21670032D-03  0.43340064D-03  0.54354644D-31
 -0.88610685D-15 -0.50018083D-16 -0.75785462D-04 -0.75785462D-04  0.15157092D-03
  0.19934275D-31  0.35891621D-16 -0.41820754D-17 -0.12998613D-03 -0.12998613D-03
  0.25997225D-03 -0.30607205D-32 -0.31365527D-15  0.36487092D-16 -0.10886544D-04
 -0.10886544D-04  0.21773089D-04  0.37535547D-33 -0.13896305D-16 -0.44745527D-16
  0.72145226D-13 -0.77597587D-15  0.20418411D-03 -0.20700202D-12 -0.77597587D-15
 -0.30627617D-03 -0.94336625D-14  0.31039035D-14 -0.30627617D-03  0.24438610D-31
 -0.13221371D-13  0.24891617D-15  0.36613712D-05  0.39018207D-13  0.24891617D-15
 -0.54920568D-05  0.64590571D-15 -0.99566467D-15 -0.54920567D-05 -0.43722533D-31
  0.11626584D-14 -0.63242834D-16  0.74127739D-04 -0.37010199D-14 -0.63242834D-16
 -0.11119161D-03  0.21304453D-15  0.25297134D-15 -0.11119161D-03 -0.11070915D-31
 -0.24598100D-16  0.16610345D-16  0.77145336D-05  0.13428178D-15  0.16610345D-16
 -0.11571800D-04 -0.60487481D-16 -0.66441379D-16 -0.11571800D-04  0.11663530D-32
 -0.97547007D-04 -0.41232559D-14  0.29264102D-03  0.30924419D-14 -0.36580127D-04
 -0.12934769D-13  0.25470608D-30  0.37892400D-14 -0.42451281D-31  0.29264102D-03
  0.30924419D-14 -0.73160255D-04  0.11671689D-13 -0.42450747D-31 -0.36580128D-04
  0.40893331D-04  0.64467739D-15 -0.12267999D-03 -0.48350804D-15  0.15334999D-04
  0.10854779D-14 -0.23843353D-31 -0.18148797D-15  0.39739305D-32 -0.12267999D-03
 -0.48350804D-15  0.30669998D-04 -0.10249819D-14  0.39738538D-32  0.15334999D-04
  0.47710358D-05 -0.79699512D-16 -0.14313107D-04  0.59774634D-16  0.17891384D-05
 -0.92266476D-16  0.20919325D-32  0.29615111D-16 -0.34865967D-33 -0.14313107D-04
  0.59774634D-16  0.35782769D-05  0.82394772D-16 -0.34865116D-33  0.17891384D-05
 -0.99788017D-04  0.11828070D-14  0.49894009D-03 -0.17742105D-14 -0.18710253D-03
  0.14785087D-15  0.13853135D-14  0.75333620D-31 -0.41820014D-15 -0.37666959D-31
 -0.34307079D-16  0.49894009D-03 -0.17742105D-14 -0.37420506D-03  0.29570175D-15
 -0.26312271D-14 -0.37666662D-31  0.20801421D-15 -0.18710253D-03  0.14785087D-15
  0.24232128D-15  0.19494360D-04 -0.66726635D-16 -0.97471802D-04  0.10008995D-15
  0.36551926D-04 -0.83408294D-17 -0.49027341D-16  0.28005280D-32  0.71954169D-17
 -0.14002509D-32  0.21647817D-17 -0.97471802D-04  0.10008995D-15  0.73103852D-04
 -0.16681659D-16  0.95656210D-16 -0.14002771D-32 -0.67280357D-17  0.36551926D-04
 -0.83408294D-17 -0.88928175D-17
MO    3     MO 0.0        OCC NO =    0.0083079  ORB. ENERGY =    0.000000
 -0.28158371D-01 -0.53122933D-01 -0.90881349D-01 -0.14642983D+00 -0.21782359D+00
 -0.28582720D+00 -0.30649210D+00 -0.24752740D+00 -0.12494215D+00 -0.21147653D-01
 -0.14902994D+00 -0.20834773D+00  0.15228886D+00  0.27351278D+00  0.54152131D-01
  0.13885287D-03 -0.23745279D-14 -0.14333052D-15 -0.11327963D-01  0.71839512D-13
  0.13994893D-15 -0.13886459D-01 -0.16578371D-13 -0.94963917D-16 -0.29670861D-01
 -0.43787908D-14  0.51972947D-16 -0.20546173D-01  0.30406379D-14 -0.16893887D-16
 -0.45221329D-02 -0.55108372D-15 -0.81481124D-17 -0.34653903D-04 -0.10862857D-03
 -0.10862865D-03  0.21725722D-03  0.28778665D-28  0.21671316D-12  0.40270359D-16
 -0.56740333D-03 -0.56740331D-03  0.11348066D-02 -0.58891945D-29  0.11346064D-13
 -0.32603871D-16 -0.47700628D-03 -0.47700628D-03  0.95401255D-03 -0.44282127D-29
 -0.13476221D-13  0.28098554D-16 -0.40539193D-03 -0.40539193D-03  0.81078387D-03
 -0.78867627D-30  0.88146122D-14 -0.30533190D-16 -0.57695848D-04 -0.57695848D-04
  0.11539170D-03  0.43705399D-31 -0.67729435D-15  0.28554113D-16  0.92845363D-12
 -0.52445795D-15  0.13916245D-02 -0.24890526D-11 -0.52445795D-15 -0.20874369D-02
 -0.29630831D-12  0.20978318D-14 -0.20874366D-02 -0.48336877D-28 -0.16873244D-12
  0.16754740D-15 -0.90554350D-03  0.46989534D-12  0.16754740D-15  0.13583153D-02
  0.36301992D-13 -0.67018959D-15  0.13583152D-02 -0.19192905D-29  0.15297252D-13
 -0.41890651D-16  0.10009686D-04 -0.44054691D-13 -0.41890651D-16 -0.15014529D-04
 -0.18370659D-14  0.16756260D-15 -0.15014528D-04  0.75021988D-30 -0.47688149D-15
  0.10479883D-16 -0.39237962D-04  0.14579120D-14  0.10479883D-16  0.58856943D-04
 -0.27267534D-16 -0.41919533D-16  0.58856943D-04 -0.19892670D-31  0.17049521D-02
  0.26676949D-14 -0.51148561D-02 -0.20007712D-14  0.63935702D-03  0.22539769D-12
  0.43943393D-28 -0.95078135D-13 -0.73238929D-29 -0.51148562D-02 -0.20007712D-14
  0.12787140D-02 -0.19370498D-12 -0.73239048D-29  0.63935702D-03 -0.35385690D-03
 -0.41533030D-15  0.10615707D-02  0.31149773D-15 -0.13269634D-03 -0.16110525D-13
  0.65478522D-30  0.42643744D-14 -0.10913422D-30  0.10615707D-02  0.31149773D-15
 -0.26539267D-03  0.14689067D-13 -0.10912752D-30 -0.13269634D-03  0.38240885D-04
  0.50299670D-16 -0.11472266D-03 -0.37724753D-16  0.14340332D-04  0.41065305D-15
  0.40259034D-31  0.17561702D-15 -0.67098972D-32 -0.11472266D-03 -0.37724753D-16
  0.28680664D-04 -0.46919206D-15 -0.67097807D-32  0.14340332D-04  0.11362271D-02
  0.75386421D-15 -0.56811353D-02 -0.11307963D-14  0.21304257D-02  0.94233027D-16
 -0.68723699D-14 -0.12618079D-28  0.30162546D-13  0.63090648D-29 -0.33331118D-14
 -0.56811353D-02 -0.11307963D-14  0.42608514D-02  0.18846605D-15  0.36905580D-14
  0.63090143D-29 -0.33879584D-14  0.21304257D-02  0.94233027D-16 -0.30259958D-16
 -0.12007558D-03 -0.42100540D-16  0.60037789D-03  0.63150809D-16 -0.22514171D-03
 -0.52625674D-17  0.19430638D-15 -0.18388676D-30 -0.10938057D-14  0.91943061D-31
  0.12450294D-15  0.60037789D-03  0.63150809D-16 -0.45028342D-03 -0.10525135D-16
 -0.24010878D-16  0.91943703D-31  0.11559602D-15 -0.22514171D-03 -0.52625674D-17
 -0.91585141D-17 -0.28158371D-01 -0.53122933D-01 -0.90881349D-01 -0.14642983D+00
 -0.21782359D+00 -0.28582720D+00 -0.30649210D+00 -0.24752740D+00 -0.12494215D+00
 -0.21147653D-01 -0.14902994D+00 -0.20834773D+00  0.15228886D+00  0.27351278D+00
  0.54152131D-01  0.13885287D-03 -0.20774882D-14  0.14982913D-15  0.11327963D-01
  0.71551865D-13 -0.14770902D-15  0.13886459D-01 -0.16385662D-13  0.98164984D-16
  0.29670861D-01 -0.44872654D-14 -0.56227457D-16  0.20546173D-01  0.30760661D-14
  0.18590882D-16  0.45221329D-02 -0.53540652D-15  0.75414821D-17  0.34653903D-04
 -0.10862857D-03 -0.10862865D-03  0.21725722D-03  0.71122489D-28 -0.21669457D-12
 -0.16807259D-16 -0.56740333D-03 -0.56740331D-03  0.11348066D-02  0.21631174D-29
 -0.11377601D-13  0.30773313D-18 -0.47700628D-03 -0.47700628D-03  0.95401255D-03
 -0.58725863D-29  0.13518431D-13  0.14189982D-16 -0.40539193D-03 -0.40539193D-03
  0.81078387D-03 -0.10228851D-29 -0.88707018D-14 -0.25522874D-16 -0.57695848D-04
 -0.57695848D-04  0.11539170D-03  0.53859365D-31  0.73328526D-15  0.27416006D-16
  0.92947361D-12  0.49581367D-15 -0.13916245D-02 -0.24880326D-11  0.49581367D-15
  0.20874369D-02 -0.30038822D-12 -0.19832547D-14  0.20874366D-02  0.46431264D-28
 -0.16905821D-12 -0.15854337D-15  0.90554350D-03  0.46956958D-12 -0.15854337D-15
 -0.13583153D-02  0.37605047D-13  0.63417347D-15 -0.13583152D-02 -0.56147054D-30
  0.15378942D-13  0.39832861D-16 -0.10009686D-04 -0.43973001D-13  0.39832861D-16
  0.15014529D-04 -0.21638253D-14 -0.15933145D-15  0.15014528D-04 -0.57411032D-30
 -0.49752548D-15 -0.10163507D-16  0.39237962D-04  0.14372680D-14 -0.10163507D-16
 -0.58856943D-04  0.55308427D-16  0.40654029D-16 -0.58856943D-04 -0.25942632D-31
  0.17049521D-02  0.25608694D-14 -0.51148561D-02 -0.19206520D-14  0.63935702D-03
 -0.22017000D-12  0.61180258D-28  0.91157369D-13 -0.10196706D-28 -0.51148562D-02
 -0.19206520D-14  0.12787140D-02  0.18978421D-12 -0.10196713D-28  0.63935702D-03
 -0.35385690D-03 -0.39934976D-15  0.10615707D-02  0.29951232D-15 -0.13269634D-03
  0.15296100D-13  0.28096665D-30 -0.36535555D-14 -0.46828394D-31  0.10615707D-02
  0.29951232D-15 -0.26539267D-03 -0.14078248D-13 -0.46827155D-31 -0.13269634D-03
  0.38240885D-04  0.48785654D-16 -0.11472266D-03 -0.36589241D-16  0.14340332D-04
 -0.31152483D-15 -0.99905449D-31 -0.24996318D-15  0.16650924D-31 -0.11472266D-03
 -0.36589241D-16  0.28680664D-04  0.39484589D-15  0.16650892D-31  0.14340332D-04
 -0.11362271D-02 -0.73139548D-15  0.56811353D-02  0.10970932D-14 -0.21304257D-02
 -0.91424435D-16 -0.83571415D-14  0.42152007D-29  0.32389703D-13 -0.21075999D-29
 -0.35187082D-14  0.56811353D-02  0.10970932D-14 -0.42608514D-02 -0.18284887D-15
  0.59177154D-14 -0.21076009D-29 -0.37591513D-14 -0.21304257D-02 -0.91424435D-16
 -0.21585641D-15  0.12007558D-03  0.41005024D-16 -0.60037789D-03 -0.61507535D-16
  0.22514171D-03  0.51256280D-17  0.27743146D-15  0.41974072D-31 -0.12184933D-14
 -0.20987127D-31  0.13489357D-15 -0.60037789D-03 -0.61507535D-16  0.45028342D-03
  0.10251256D-16 -0.14869850D-15 -0.20986945D-31  0.13637729D-15  0.22514171D-03
  0.51256280D-17  0.12321207D-17
MO    4     MO 0.0        OCC NO =    0.0067088  ORB. ENERGY =    0.000000
  0.28963633D-01  0.54642121D-01  0.93480337D-01  0.15061737D+00  0.22405282D+00
  0.29400117D+00  0.31525704D+00  0.25460609D+00  0.12851519D+00  0.21752426D-01
  0.16823511D+00  0.22685683D+00 -0.17291257D+00 -0.30819989D+00 -0.65402705D-01
 -0.28027397D-03  0.39056469D-14 -0.15582598D-15 -0.17918798D-01  0.21640694D-13
  0.15166048D-15 -0.30745096D-01 -0.55906192D-14 -0.10501962D-15 -0.51332501D-01
 -0.13859340D-14  0.56836343D-16 -0.44763315D-01  0.98302713D-15 -0.18720255D-16
 -0.72938882D-02 -0.19100541D-15 -0.98984172D-17  0.29804438D-03 -0.27828685D-02
 -0.27828685D-02  0.55657370D-02  0.21383641D-28  0.83353198D-13  0.10959710D-15
  0.13999803D-02  0.13999803D-02 -0.27999605D-02  0.10165337D-29 -0.89470499D-15
 -0.72717431D-16 -0.20820745D-02 -0.20820745D-02  0.41641490D-02 -0.85550941D-30
 -0.54946732D-14  0.45628395D-16 -0.35984576D-03 -0.35984576D-03  0.71969153D-03
 -0.11974262D-30  0.19693705D-14 -0.39149039D-16  0.16235414D-03  0.16235414D-03
 -0.32470827D-03  0.25555624D-31 -0.14311012D-15  0.34027033D-16 -0.58814779D-14
 -0.62066784D-15  0.33899020D-03  0.94299098D-13 -0.62066784D-15 -0.50848493D-03
 -0.76654664D-13  0.24826714D-14 -0.50848567D-03 -0.63502969D-29  0.17736300D-14
  0.19807318D-15 -0.32900913D-03 -0.14191576D-13  0.19807318D-15  0.49351366D-03
  0.88706861D-14 -0.79229273D-15  0.49351372D-03 -0.15318073D-29 -0.30156847D-15
 -0.49367114D-16 -0.58290777D-03  0.86914909D-15 -0.49367114D-16  0.87436166D-03
  0.35556314D-16  0.19746846D-15  0.87436165D-03 -0.21284541D-30  0.21666803D-16