----- GAMESS execution script 'rungms' -----
This job is running on host n079
under operating system Linux at Thu Jul 15 14:22:45 MSK 2021
Available scratch disk space (Kbyte units) at beginning of the job is
Filesystem              1K-blocks         Used    Available Use% Mounted on
172.19.133.1@o2ib:172.19.133.2@o2ib:/hpc4
                     616206369600 406767586676 178363930860  70% /s/ls4
GAMESS temporary binary files will be written to /s/ls4/users/dzaripov/scratch
GAMESS supplementary output files will be written to /s/ls4/users/dzaripov/scratch
Copying input file /s/ls4/users/dzaripov/HelFey/GAMESS/GAMESS_AM05_ACC6m_DIIS_He.inp to your run's scratch directory...
cp /s/ls4/users/dzaripov/HelFey/GAMESS/GAMESS_AM05_ACC6m_DIIS_He.inp /s/ls4/users/dzaripov/scratch/GAMESS_AM05_ACC6m_DIIS_He.F05
unset echo
 
Assuming a single but multicore node.
 
/s/ls4/users/dzaripov/prog/GAMESS-US/GAMESS_R2SCAN/ddikick.x /s/ls4/users/dzaripov/prog/GAMESS-US/GAMESS_R2SCAN/gamess.00.x GAMESS_AM05_ACC6m_DIIS_He -ddi 1 4 n079:cpus=4 -scr /s/ls4/users/dzaripov/scratch

 Distributed Data Interface kickoff program.
 Initiating 4 compute processes on 1 nodes to run the following command:
 /s/ls4/users/dzaripov/prog/GAMESS-US/GAMESS_R2SCAN/gamess.00.x GAMESS_AM05_ACC6m_DIIS_He 

          *******************************************************
          *                                                     *
          *          GAMESS VERSION = 30 SEP 2020 (R2)          *
          *                                                     *
          *              doi.org/10.1063/5.0005188              *
          *                                                     *
          **************** 64 BIT LINUX VERSION *****************

  GAMESS HAS BEEN MADE POSSIBLE WITH IMPORTANT CONTRIBUTIONS FROM
  THE FOLLOWING INDIVIDUALS (IN ALPHABETICAL ORDER):

     IVANA ADAMOVIC, CHRISTINE AIKENS, TOMOKO AKAMA,
     YURI ALEXEEV, YURIKO AOKI, POOJA ARORA, TOSHIO ASADA,
     ANDREY ASADCHEV, KIM K. BALDRIDGE, PRADIPTA BANDYOPADHYAY,
     MARIA BARYSZ, ROB BELL, JONATHAN BENTZ, COLLEEN BERTONI,
     JERRY A. BOATZ, BRETT BODE, KURT BRORSEN, KURT R. BRORSEN,
     LAIMUTIS BYTAUTAS, CALEB CARLIN, LAURA CARRINGTON,
     GALINA CHABAN, BENOIT CHAMPAGNE, WEI CHEN, MAHITO CHIBA,
     DAN CHIPMAN, CHEOL HO CHOI, TANNER CULPITT,
     DIPAYAN DATTA, PAUL DAY, ALBERT DEFUSCO,
     NUWAN DESILVA, J. EMILIANO DEUSTUA,
     TIM DUDLEY, MICHEL DUPUIS, STEVEN T. ELBERT,
     DMITRI FEDOROV, ALEX FINDLATER, GRAHAM FLETCHER,
     MARK FREITAG, CHRISTIAN FRIEDL, DAVID GARMER,
     IGOR S. GERASIMOV, KURT GLAESEMANN, MARK S. GORDON,
     JEFFREY GOUR, FENG LONG GU, EMILIE B. GUIDEZ,
     ANASTASIA GUNINA, SHARON HAMMES-SCHIFFER, MASATAKE HARUTA,
     KIMIHIKO HIRAO, YASUHIRO IKABATA, TZVETELIN IORDANOV,
     STEPHAN IRLE, KAZUYA ISHIMURA, JOE IVANIC, FRANK JENSEN,
     JAN H. JENSEN, VISVALDAS KAIRYS, MUNEAKI KAMIYA,
     MICHIO KATOUDA, NAOAKI KAWAKAMI, DAN KEMP, BERNARD KIRTMAN,
     KAZUO KITAURA, MARIUSZ KLOBUKOWSKI, MASATO KOBAYASHI,
     PRAKASHAN KORAMBATH, JACEK KORCHOWIEC, SHIRO KOSEKI,
     KAROL KOWALSKI, JIMMY KROMANN, STANISLAW KUCHARSKI,
     HENRY KURTZ, SAROM SOK LEANG, HUI LI, SHUHUA LI, WEI LI,
     JESSE LUTZ, ALEKSANDR O. LYKHIN, MARCIN MAKOWSKI,
     JOANI MATO, NIKITA MATSUNAGA, BENEDETTA MENNUCCI,
     GRANT MERRILL, NORIYUKI MINEZAWA, VLADIMIR MIRONOV,
     EISAKU MIYOSHI, JOHN A. MONTGOMERY JR., HIROTOSHI MORI,
     JONATHAN MULLIN, MONIKA MUSIAL, SHIGERU NAGASE,
     TAKESHI NAGATA, HIROMI NAKAI, TAKAHITO NAKAJIMA,
     YUYA NAKAJIMA, HARUYUKI NAKANO, HIROYA NAKATA, SEAN NEDD,
     HEATHER NETZLOFF, KIET A. NGUYEN, YOSHIO NISHIMOTO,
     BOSILJKA NJEGIC, RYAN OLSON, MIKE PAK, ROBERTO PEVERATI,
     BUU PHAM, PIOTR PIECUCH, ANNA POMOGAEVA, DAVID POOLE,
     SPENCER PRUITT, OLIVIER QUINET, LUKE ROSKOP,
     KLAUS RUEDENBERG, ANDREW SAND, TOSAPORN SATTASATHUCHANA,
     NOZOMI SAWADA, MICHAEL W. SCHMIDT, PATRICK E. SCHNEIDER,
     JUNJI SEINO, PRACHI SHARMA, JUN SHEN, JIM SHOEMAKER,
     YINAN SHU, DEJUN SI, JONATHAN SKONE, LYUDMILA SLIPCHENKO,
     TONY SMITH, JIE SONG, MARK SPACKMAN, CASPER STEINMANN,
     WALT STEVENS, PEIFENG SU, SHUJUN SU, CHET SWALINA,
     TETSUYA TAKETSUGU, ZHEN TAO, NANDUN THELLAMUREGE
     SEIKEN TOKURA, JACOPO TOMASI, TSUGUKI TOUMA, TAKAO TSUNEDA,
     HIROAKI UMEDA, JORGE LUIS GALVEZ VALLEJO, YALI WANG,
     SIMON WEBB, AARON WEST, THERESA L. WINDUS, MARTA WLOCH,
     PENG XU, KIYOSHI YAGI, SUSUMU YANAGISAWA, YANG YANG,
     SOOHAENG YOO, TAKESHI YOSHIKAWA, FEDERICO ZAHARIEV,
     TOBY ZENG

  WHO ARE SUPPORTED BY THEIR INSTITUTION/UNIVERSITY/COMPANY/GROUP
  (IN ALPHABETICAL ORDER):

     EP ANALYTICS, FACULTES UNIVERSITAIRES NOTRE-DAME DE LA PAIX,
     INSTITUTE FOR MOLECULAR SCIENCE, IOWA STATE UNIVERSITY,
     JACKSON STATE UNIVERSITY, JOHANNES KEPLER UNIVERSITY LINZ,
     KYUSHU UNIVERSITY, MICHIGAN STATE UNIVERSITY,
     MIE UNIVERSITY, MOSCOW STATE UNIVERSITY,
     N. COPERNICUS UNIVERSITY, NAGOYA UNIVERSITY,
     NANJING UNIVERSITY, NAT. INST. OF ADVANCED INDUSTRIAL
     SCIENCE AND TECHNOLOGY, NATIONAL INST. OF STANDARDS AND
     TECHNOLOGY, NESMEYANOV INSTITUTE OF ORGANOELEMENT COMPOUNDS
     OF RUSSIAN ACADEMY OF SCIENCES, OSAKA PREFECTURE UNIVERSITY,
     PENNSYLVANIA STATE UNIVERSITY, TOKYO INSTITUTE OF TECHNOLOGY,
     UNIVERSITY OF AARHUS, UNIVERSITY OF ALBERTA,
     UNIVERSITY OF CALIFORNIA AT SANTA BARBARA,
     UNIVERSITY OF COPENHAGEN, UNIVERSITY OF IOWA,
     UNIVERSITY OF MEMPHIS, UNIVERSITY OF MINNESOTA,
     UNIVERSITY OF NEBRASKA, UNIVERSITY OF NEW ENGLAND,
     UNIVERSITY OF NOTRE DAME, UNIVERSITY OF PISA,
     UNIVERSITY OF SILESIA, UNIVERSITY OF TOKYO,
     UNIVERSITY OF ZURICH, WASEDA UNIVERSITY, YALE UNIVERSITY

  GAMESS SOFTWARE MANAGEMENT TEAM FOR THIS RELEASE:
     MARK S. GORDON (TEAM LEAD),
     BRETT BODE (SENIOR ADVISOR),
     GIUSEPPE BARCA,
     COLLEEN BERTONI,
     KRISTOPHER KEIPERT (ADVISOR),
     SAROM S. LEANG (DEVELOPMENT LEAD),
     BUU PHAM,
     JORGE LUIS GALVEZ VALLEJO (WEBSITE ADMINISTRATOR),
     PENG XU


 PARALLEL VERSION RUNNING ON        4 PROCESSORS IN        1 NODES.

 EXECUTION OF GAMESS BEGUN 14:22:45 15-JUL-2021    

            ECHO OF THE FIRST FEW INPUT CARDS -
 INPUT CARD> $CONTRL DFTTYP=USELIBXC $END                                                   
 INPUT CARD> $LIBXC FUNCTIONAL=AM05 $END                                                    
 INPUT CARD> $SYSTEM MWORDS=100 $END                                                        
 INPUT CARD> $CONTRL MAXIT=200 SCFTYP=RHF RUNTYP=gradient NUMGRD=.T. ISPHER=1 UNITS=ANGS    
 INPUT CARD>  EXETYP=RUN COORD=UNIQUE ICHARG=0 MULT=1 AIMPAC=.T. $END                       
 INPUT CARD> $BASIS GBASIS=ACC6m EXTFIL=.T. $END                                            
 INPUT CARD> $SCF DIRSCF=.TRUE. DIIS=.T. $END                                               
 INPUT CARD> $DFT NRAD=999 NLEB=974 $END                                                    
 INPUT CARD> $DATA                                                                          
 INPUT CARD> ./GAMESS_AM05_ACC6m_DIIS_He.inp                                                
 INPUT CARD>C1                                                                              
 INPUT CARD> He 2.0 0. 0. 0.                                                                
 INPUT CARD> $END                                                                           
  100000000 WORDS OF MEMORY AVAILABLE

     $BASIS REQUESTS READING THE "ACC6M   " BASIS SET FROM AN EXTERNAL FILE


     RUN TITLE
     ---------
  ./GAMESS_AM05_ACC6m_DIIS_He.inp                                                

 THE POINT GROUP OF THE MOLECULE IS C1      
 THE ORDER OF THE PRINCIPAL AXIS IS     0

 THE EXTERNAL BASIS SET FILE BEING READ IS
     "/s/ls4/users/dzaripov/prog/GAMESS-US/GAMESSBAS/ACC6m"
 *** WARNING! ATOM   1 SHELL    1 TYPE S HAS NORMALIZATION  99.99965729

 ATOM      ATOMIC                      COORDINATES (BOHR)
           CHARGE         X                   Y                   Z
 HE          2.0     0.0000000000        0.0000000000        0.0000000000

          INTERNUCLEAR DISTANCES (ANGS.)
          ------------------------------

                1 HE    

   1 HE      0.0000000  

  * ... LESS THAN  3.000


     ATOMIC BASIS SET
     ----------------
 THE CONTRACTED PRIMITIVE FUNCTIONS HAVE BEEN UNNORMALIZED
 THE CONTRACTED BASIS FUNCTIONS ARE NOW NORMALIZED TO UNITY

  SHELL TYPE  PRIMITIVE        EXPONENT          CONTRACTION COEFFICIENT(S)

 HE        

      1   S       1          4785.0000000    0.000059999794
      1   S       2           717.0000000    0.000469998389
      1   S       3           163.2000000    0.002439991638
      1   S       4            46.2600000    0.010119965317
      1   S       5            15.1000000    0.034859880530
      1   S       6             5.4370000    0.098409662735
      1   S       7             2.0880000    0.216309258675
      1   S       8             0.8297000    0.349048803755
      1   S       9             0.3366000    0.346598812152
      1   S      10             0.1369000    0.115189605227

      2   S      11             5.4370000    1.000000000000

      3   S      12             2.0880000    1.000000000000

      4   S      13             0.8297000    1.000000000000

      5   S      14             0.3366000    1.000000000000

      6   S      15             0.1369000    1.000000000000

      7   S      16             0.0447300    1.000000000000

      8   P      17            16.1040000    1.000000000000

      9   P      18             6.3420000    1.000000000000

     10   P      19             2.4980000    1.000000000000

     11   P      20             0.9840000    1.000000000000

     12   P      21             0.3870000    1.000000000000

     13   P      22             0.1280000    1.000000000000

     14   D      23            12.4980000    1.000000000000

     15   D      24             4.8860000    1.000000000000

     16   D      25             1.9100000    1.000000000000

     17   D      26             0.7470000    1.000000000000

     18   D      27             0.2410000    1.000000000000

     19   F      28             9.2760000    1.000000000000

     20   F      29             3.4620000    1.000000000000

     21   F      30             1.2920000    1.000000000000

     22   F      31             0.4070000    1.000000000000

     23   G      32             6.5860000    1.000000000000

     24   G      33             2.2360000    1.000000000000

     25   G      34             0.6860000    1.000000000000

     26   H      35             4.1590000    1.000000000000

     27   H      36             1.0160000    1.000000000000

 TOTAL NUMBER OF BASIS SET SHELLS             =   27
 NUMBER OF CARTESIAN GAUSSIAN BASIS FUNCTIONS =  182
 NOTE: THIS RUN WILL RESTRICT THE MO VARIATION SPACE TO SPHERICAL HARMONICS.
 THE NUMBER OF ORBITALS KEPT IN THE VARIATIONAL SPACE WILL BE PRINTED LATER.
 NUMBER OF ELECTRONS                          =    2
 CHARGE OF MOLECULE                           =    0
 SPIN MULTIPLICITY                            =    1
 NUMBER OF OCCUPIED ORBITALS (ALPHA)          =    1
 NUMBER OF OCCUPIED ORBITALS (BETA )          =    1
 TOTAL NUMBER OF ATOMS                        =    1
 THE NUCLEAR REPULSION ENERGY IS        0.0000000000

 THIS MOLECULE IS RECOGNIZED AS BEING LINEAR,
 ORBITAL LZ DEGENERACY TOLERANCE ETOLLZ= 1.00E-06

 SELECTED MURRAY-HANDY-LAMING RADIAL GRID

 LEGACY BECKE'S FUZZY CELL METHOD

 SELECTED ORIGINAL BECKE'S PARTITION FUNCTION

     LEBEDEV GRID-BASED DFT OPTIONS
     ------------------------------
     DFTTYP=USELIBXC
     NRAD  =     999     NLEB  =     974
     NRAD0 =     249     NLEB0 =     110
     SWOFF =    5.00E-03 (PURE SCF -> DFT)
     SWITCH=    3.00E-04 (COARSE -> TIGHT GRID)
     THRESH=    0.00E+00 GTHRE=    1.00E+00
 
 The LibXC 5.1.4 version is used!
 
 THE FOLLOWING PAPERS SHOULD BE CITED WHEN USING LIBXC INTERFACE:
 S. Lehtola, C. Steigemann, M. J. Oliveira, and M. A. Marques, SoftwareX 7, 1 (2018)
 DOI: 10.1016/j.softx.2017.11.002
 and
 Igor S. Gerasimov, Federico Zahariev, Sarom S. Leang, Anton Tesliuk, Mark S. Gordon, Michael G. Medvedev,
 Introducing LibXC into GAMESS (US),
 Mendeleev Commun., 2021, 31, 302–305
 DOI: 10.1016/j.mencom.2021.05.008
 
 The information about selected functionals:
The Armiento & Mattsson 05 exchange functional will be used with a coefficient   1.00000000E+00.
The functional has been described in the following articles:
[1] R. Armiento and A. E. Mattsson, Phys. Rev. B 72, 085108 (2005); DOI: 10.1103/PhysRevB.72.085108
[2] A. E. Mattsson, R. Armiento, J. Paier, G. Kresse, J. M. Wills, and T. R. Mattsson, J. Chem. Phys. 128, 084714 (2008); DOI: 10.1063/1.2835596
The Armiento & Mattsson 05 correlation functional will be used with a coefficient   1.00000000E+00.
The functional has been described in the following articles:
[1] R. Armiento and A. E. Mattsson, Phys. Rev. B 72, 085108 (2005); DOI: 10.1103/PhysRevB.72.085108
[2] A. E. Mattsson, R. Armiento, J. Paier, G. Kresse, J. M. Wills, and T. R. Mattsson, J. Chem. Phys. 128, 084714 (2008); DOI: 10.1063/1.2835596
  
 The global hybrid part:                   0.0000000000000000     
  

 GRIMME'S EMPIRICAL DISPERSION CORRECTION= F

     $CONTRL OPTIONS
     ---------------
 SCFTYP=RHF          RUNTYP=GRADIENT     EXETYP=RUN     
 MPLEVL=       0     CITYP =NONE         CCTYP =NONE         VBTYP =NONE    
 DFTTYP=USELIBXC     TDDFT =NONE    
 MULT  =       1     ICHARG=       0     NZVAR =       0     COORD =UNIQUE  
 PP    =NONE         RELWFN=NONE         LOCAL =NONE         NUMGRD=       T
 ISPHER=       1     NOSYM =       0     MAXIT =     200     UNITS =ANGS    
 PLTORB=       F     MOLPLT=       F     AIMPAC=       T     FRIEND=        
 NPRINT=       7     IREST =       0     GEOM  =INPUT   
 NORMF =       0     NORMP =       0     ITOL  =      20     ICUT  =       9
 INTTYP=BEST         GRDTYP=BEST         QMTTOL= 1.0E-06

     $SYSTEM OPTIONS
     ---------------
  REPLICATED MEMORY=   100000000 WORDS (ON EVERY NODE).
 DISTRIBUTED MEMDDI=           0 MILLION WORDS IN AGGREGATE,
 MEMDDI DISTRIBUTED OVER   4 PROCESSORS IS           0 WORDS/PROCESSOR.
 TOTAL MEMORY REQUESTED ON EACH PROCESSOR=   100000000 WORDS.
 TIMLIM=      525600.00 MINUTES, OR     365.0 DAYS.
 PARALL= T  BALTYP=  DLB     KDIAG=    0  COREFL= F
 MXSEQ2=     300 MXSEQ3=     150  mem10=         0  mem22=         0

 Using Gaussians for PCM contribution to MEP, params: 0.10000E+01 0.10000E-07

          ----------------
          PROPERTIES INPUT
          ----------------

     MOMENTS            FIELD           POTENTIAL          DENSITY
 IEMOM =       1   IEFLD =       0   IEPOT =       0   IEDEN =       0
 WHERE =COMASS     WHERE =NUCLEI     WHERE =NUCLEI     WHERE =NUCLEI  
 OUTPUT=BOTH       OUTPUT=BOTH       OUTPUT=BOTH       OUTPUT=BOTH    
 IEMINT=       0   IEFINT=       0                     IEDINT=       0
                                                       MORB  =       0
          EXTRAPOLATION IN EFFECT
          DIIS IN EFFECT
 ORBITAL PRINTING OPTION: NPREO=     1   182     2     1

     -------------------------------
     INTEGRAL TRANSFORMATION OPTIONS
     -------------------------------
     NWORD  =            0
     CUTOFF = 1.0E-09     MPTRAN =       0
     DIRTRF =       T     AOINTS =DUP     

          ----------------------
          INTEGRAL INPUT OPTIONS
          ----------------------
 NOPK  =       1 NORDER=       0 SCHWRZ=       T

     ------------------------------------------
     THE POINT GROUP IS C1 , NAXIS= 0, ORDER= 1
     ------------------------------------------

 -- VARIATIONAL SPACE WILL BE RESTRICTED TO PURE SPHERICAL HARMONICS ONLY --
 AFTER EXCLUDING CONTAMINANT COMBINATIONS FROM THE CARTESIAN GAUSSIAN BASIS
 SET, THE NUMBER OF SPHERICAL HARMONICS KEPT IN THE VARIATION SPACE IS  127

     DIMENSIONS OF THE SYMMETRY SUBSPACES ARE
 A   =  127

 ..... DONE SETTING UP THE RUN .....
 CPU     0: STEP CPU TIME=     0.04 TOTAL CPU TIME=          0.0 (      0.0 MIN)
 TOTAL WALL CLOCK TIME=          0.1 SECONDS, CPU UTILIZATION IS    52.51%

                    --------------------------------
                    SINGLE POINT ENERGY AND GRADIENT
                    --------------------------------

          ********************
          1 ELECTRON INTEGRALS
          ********************
 ...... END OF ONE-ELECTRON INTEGRALS ......
 CPU     0: STEP CPU TIME=     0.01 TOTAL CPU TIME=          0.0 (      0.0 MIN)
 TOTAL WALL CLOCK TIME=          0.1 SECONDS, CPU UTILIZATION IS    53.11%

          -------------
          GUESS OPTIONS
          -------------
          GUESS =HUCKEL            NORB  =       0          NORDER=       0
          MIX   =       F          PRTMO =       F          PUNMO =       F
          TOLZ  = 1.0E-08          TOLE  = 1.0E-05
          SYMDEN=       F          PURIFY=       F

 INITIAL GUESS ORBITALS GENERATED BY HUCKEL   ROUTINE.
 HUCKEL GUESS REQUIRES    235246 WORDS.

 STATISTICS FOR GENERATION OF SYMMETRY ORBITAL -Q- MATRIX
 NUMBER OF CARTESIAN ATOMIC ORBITALS=        182
 NUMBER OF SPHERICAL CONTAMINANTS DROPPED=    55
 NUMBER OF LINEARLY DEPENDENT MOS DROPPED=     0
 TOTAL NUMBER OF MOS IN VARIATION SPACE=     127

 SYMMETRIES FOR INITIAL GUESS ORBITALS FOLLOW.   BOTH SET(S).
     1 ORBITALS ARE OCCUPIED (    0 CORE ORBITALS).
     1=A        2=A        3=A        4=A        5=A        6=A        7=A   
     8=A        9=A       10=A       11=A   
 ...... END OF INITIAL ORBITAL SELECTION ......
 CPU     0: STEP CPU TIME=     0.01 TOTAL CPU TIME=          0.1 (      0.0 MIN)
 TOTAL WALL CLOCK TIME=          0.1 SECONDS, CPU UTILIZATION IS    50.89%

                    ----------------------
                    AO INTEGRAL TECHNOLOGY
                    ----------------------
     S,P,L SHELL ROTATED AXIS INTEGRALS, REPROGRAMMED BY
        KAZUYA ISHIMURA (IMS) AND JOSE SIERRA (SYNSTAR).
     S,P,D,L SHELL ROTATED AXIS INTEGRALS PROGRAMMED BY
        KAZUYA ISHIMURA (INSTITUTE FOR MOLECULAR SCIENCE).
     S,P,D,F,G SHELL TO TOTAL QUARTET ANGULAR MOMENTUM SUM 5,
        ERIC PROGRAM BY GRAHAM FLETCHER (ELORET AND NASA ADVANCED
        SUPERCOMPUTING DIVISION, AMES RESEARCH CENTER).
     S,P,D,F,G,L SHELL GENERAL RYS QUADRATURE PROGRAMMED BY
        MICHEL DUPUIS (PACIFIC NORTHWEST NATIONAL LABORATORY).

          --------------------
          2 ELECTRON INTEGRALS
          --------------------

 DIRECT SCF METHOD SKIPS INTEGRAL STORAGE ON DISK.
 DIRECT TRANSFORMATION SKIPS AO INTEGRAL STORAGE ON DISK.
  ...... END OF TWO-ELECTRON INTEGRALS .....
 CPU     0: STEP CPU TIME=     0.02 TOTAL CPU TIME=          0.1 (      0.0 MIN)
 TOTAL WALL CLOCK TIME=          0.1 SECONDS, CPU UTILIZATION IS    58.88%

          --------------------------
          R-USELIBXC SCF CALCULATION
          --------------------------

     NUCLEAR ENERGY =         0.0000000000
     MAXIT =  200     NPUNCH=    2
     EXTRAP=T  DAMP=F  SHIFT=F  RSTRCT=F  DIIS=T  DEM=F  SOSCF=F
         DENSITY MATRIX CONVERGENCE THRESHOLD=  2.00E-05
     COARSE -> FINE DFT GRID SWITCH THRESHOLD=  3.00E-04 (SWITCH IN $DFT)
                   HF -> DFT SWITCH THRESHOLD=  5.00E-03 (SWOFF IN $DFT)
     MEMORY REQUIRED FOR RHF ITERS=   1539377 WORDS.

 DIRECT SCF CALCULATION, SCHWRZ=T   FDIFF=T,  DIRTHR=  0.00E+00 NITDIR=10
 SCHWARZ INEQUALITY OVERHEAD:     16653 INTEGRALS, T=        0.01

 DFT CODE IS SWITCHING FROM THE FINE GRID NRAD=999,  NLEB=  974
                      TO THE COARSE GRID NRAD0=249, NLEB0=  110

     EXCHANGE FUNCTIONAL   =LIBXC     
     CORRELATION FUNCTIONAL=LIBXC     
     DFT THRESHOLD         =.412E-08
     GRID CHANGE THRESHOLD =.300E-03
 FOR AN EULER-MACLAURIN QUADRATURE USING 999 RADIAL POINTS:
 SMALLEST GAUSSIAN PRIMITIVE EXPONENT=        0.0447300000 OF TYPE -S-
 ON ATOM NUMBER   1 HAS RADIAL NORMALIZATION=  1.000000
  LARGEST GAUSSIAN PRIMITIVE EXPONENT=     4785.0000000000 OF TYPE -S-
 ON ATOM NUMBER   1 HAS RADIAL NORMALIZATION=  1.000000
 DFT IS SWITCHED OFF, PERFORMING PURE SCF UNTIL SWOFF THRESHOLD IS REACHED.

                                                                                   NONZERO     BLOCKS
 ITER EX DEM     TOTAL ENERGY        E CHANGE  DENSITY CHANGE    DIIS ERROR      INTEGRALS    SKIPPED
          * * *   INITIATING DIIS PROCEDURE   * * *
   1  0  0       -2.8511701310    -2.8511701310   0.598406760   0.284509682         182301      51555
   2  1  0       -2.8614543194    -0.0102841884   0.050890275   0.021048670         182301      51555
   3  2  0       -2.8616665734    -0.0002122540   0.006854784   0.002824274         182301      51555
   4  3  0       -2.8616730940    -0.0000065206   0.000219386   0.000248797         180638      51643
 CONVERGED TO SWOFF, SO DFT CALCULATION IS NOW SWITCHED ON.
 DFT CODE IS SWITCHING BACK TO THE FINE GRID
          * * *   INITIATING DIIS PROCEDURE   * * *
   5  4  0       -2.8510785308     0.0105945632   0.077785794   0.044632001         174988      52038
   6  5  0       -2.8524016196    -0.0013230888   0.036811765   0.022949306         869630      46850
   7  6  0       -2.8525501823    -0.0001485627   0.005720222   0.004150005         492119      49538
   8  7  0       -2.8525553155    -0.0000051333   0.000030332   0.000023445         337712      50536
   9  8  0       -2.8525553157    -0.0000000002   0.000000058   0.000000069         285208      51914
  10  9  0       -2.8525553157     0.0000000000   0.000000002   0.000000001         109119      58682

          -----------------
          DENSITY CONVERGED
          -----------------
     TIME TO FORM FOCK OPERATORS=      56.0 SECONDS (       5.6 SEC/ITER)
     FOCK TIME ON FIRST ITERATION=       0.1, LAST ITERATION=      10.0
     TIME TO SOLVE SCF EQUATIONS=       0.1 SECONDS (       0.0 SEC/ITER)

 FINAL R-USELIBXC ENERGY IS       -2.8525553157 AFTER  10 ITERATIONS
 DFT EXCHANGE + CORRELATION ENERGY =        -0.9961322276
 TOTAL ELECTRON NUMBER             =         1.9999999923

 LZ VALUE ANALYSIS FOR THE MOS
 ----------------------------------------
 MO     1 (    1) HAS LZ(WEIGHT)= 0.00(100.0%) 
 MO     2 (    2) HAS LZ(WEIGHT)= 0.00(100.0%) 
 MO     3 (    3) HAS LZ(WEIGHT)=-1.00( 39.3%)  0.00( 21.4%)  1.00( 39.3%) 
 MO     4 (    3) HAS LZ(WEIGHT)=-1.00( 45.8%)  0.00(  8.4%)  1.00( 45.8%) 
 MO     5 (    3) HAS LZ(WEIGHT)=-1.00( 14.9%)  0.00( 70.2%)  1.00( 14.9%) 
 MO     6 (    4) HAS LZ(WEIGHT)= 0.00(100.0%) 
 MO     7 (    5) HAS LZ(WEIGHT)=-1.00( 50.0%)  1.00( 50.0%) 
 MO     8 (    5) HAS LZ(WEIGHT)=-1.00( 49.7%)  1.00( 49.7%) 
 MO     9 (    5) HAS LZ(WEIGHT)=-2.00( 49.7%)  2.00( 49.7%) 
 MO    10 (    5) HAS LZ(WEIGHT)=-2.00( 46.6%)  0.00(  6.7%)  2.00( 46.6%) 
 MO    11 (    5) HAS LZ(WEIGHT)=-2.00(  3.4%)  0.00( 93.3%)  2.00(  3.4%) 
 MO    12 (    6) HAS LZ(WEIGHT)=-1.00( 49.8%)  1.00( 49.8%) 
 MO    13 (    6) HAS LZ(WEIGHT)=-1.00( 47.4%)  0.00(  5.3%)  1.00( 47.4%) 
 MO    14 (    6) HAS LZ(WEIGHT)=-1.00(  2.9%)  0.00( 94.3%)  1.00(  2.9%) 
 MO    15 (    7) HAS LZ(WEIGHT)= 0.00(100.0%) 
 MO    16 (    8) HAS LZ(WEIGHT)=-2.00( 50.0%)  2.00( 50.0%) 
 MO    17 (    8) HAS LZ(WEIGHT)=-2.00( 50.0%)  2.00( 50.0%) 
 MO    18 (    8) HAS LZ(WEIGHT)=-3.00( 18.7%) -1.00( 31.3%)  1.00( 31.3%)  3.00( 18.7%) 
 MO    19 (    8) HAS LZ(WEIGHT)=-3.00( 18.7%) -1.00( 31.3%)  1.00( 31.3%)  3.00( 18.7%) 
 MO    20 (    8) HAS LZ(WEIGHT)=-3.00( 31.3%) -1.00( 18.7%)  1.00( 18.7%)  3.00( 31.3%) 
 MO    21 (    8) HAS LZ(WEIGHT)=-3.00( 31.2%) -1.00( 18.7%)  1.00( 18.7%)  3.00( 31.2%) 
 MO    22 (    8) HAS LZ(WEIGHT)= 0.00( 99.9%) 
 MO    23 (    9) HAS LZ(WEIGHT)=-2.00( 50.0%)  2.00( 50.0%) 
 MO    24 (    9) HAS LZ(WEIGHT)=-1.00( 50.0%)  1.00( 50.0%) 
 MO    25 (    9) HAS LZ(WEIGHT)=-1.00( 50.0%)  1.00( 50.0%) 
 MO    26 (    9) HAS LZ(WEIGHT)=-2.00(  3.4%)  0.00( 93.2%)  2.00(  3.4%) 
 MO    27 (    9) HAS LZ(WEIGHT)=-2.00( 46.6%)  0.00(  6.8%)  2.00( 46.6%) 
 MO    28 (   10) HAS LZ(WEIGHT)=-1.00( 50.0%)  1.00( 50.0%) 
 MO    29 (   10) HAS LZ(WEIGHT)=-0.00( 99.9%) 
 MO    30 (   10) HAS LZ(WEIGHT)=-1.00( 49.9%)  1.00( 49.9%) 
 MO    31 (   11) HAS LZ(WEIGHT)=-3.00( 43.8%) -1.00(  6.2%)  1.00(  6.2%)  3.00( 43.8%) 
 MO    32 (   11) HAS LZ(WEIGHT)=-3.00( 43.8%) -1.00(  6.2%)  1.00(  6.2%)  3.00( 43.8%) 
 MO    33 (   11) HAS LZ(WEIGHT)=-2.00( 50.0%)  2.00( 50.0%) 
 MO    34 (   11) HAS LZ(WEIGHT)=-4.00(  1.3%) -2.00( 47.7%)  0.00(  1.9%)  2.00( 47.7%)  4.00(  1.3%) 
 MO    35 (   11) HAS LZ(WEIGHT)=-4.00( 27.8%) -2.00(  2.3%)  0.00( 39.7%)  2.00(  2.3%)  4.00( 27.8%) 
 MO    36 (   11) HAS LZ(WEIGHT)=-3.00(  6.2%) -1.00( 43.8%)  1.00( 43.8%)  3.00(  6.2%) 
 MO    37 (   11) HAS LZ(WEIGHT)=-3.00(  6.2%) -1.00( 43.8%)  1.00( 43.8%)  3.00(  6.2%) 
 MO    38 (   11) HAS LZ(WEIGHT)=-4.00( 50.0%)  4.00( 50.0%) 
 MO    39 (   11) HAS LZ(WEIGHT)=-4.00( 20.8%)  0.00( 58.3%)  4.00( 20.8%) 
 MO    40 (   12) HAS LZ(WEIGHT)= 0.00(100.0%) 
 MO    41 (   13) HAS LZ(WEIGHT)=-2.00( 50.0%)  2.00( 50.0%) 
 MO    42 (   13) HAS LZ(WEIGHT)=-3.00( 18.8%) -1.00( 31.2%)  1.00( 31.2%)  3.00( 18.8%) 
 MO    43 (   13) HAS LZ(WEIGHT)=-3.00( 18.8%) -1.00( 31.2%)  1.00( 31.2%)  3.00( 18.8%) 
 MO    44 (   13) HAS LZ(WEIGHT)=-2.00( 50.0%)  2.00( 50.0%) 
 MO    45 (   13) HAS LZ(WEIGHT)=-0.00( 99.8%) 
 MO    46 (   13) HAS LZ(WEIGHT)=-3.00( 31.2%) -1.00( 18.8%)  1.00( 18.8%)  3.00( 31.2%) 
 MO    47 (   13) HAS LZ(WEIGHT)=-3.00( 31.2%) -1.00( 18.8%)  1.00( 18.8%)  3.00( 31.2%) 
 MO    48 (   14) HAS LZ(WEIGHT)=-3.00( 44.7%) -1.00(  4.4%)  1.00(  4.4%)  3.00( 44.7%) 
 MO    49 (   14) HAS LZ(WEIGHT)=-3.00( 44.7%) -1.00(  4.4%)  1.00(  4.4%)  3.00( 44.7%) 
 MO    50 (   14) HAS LZ(WEIGHT)=-4.00( 40.0%)  0.00( 20.0%)  4.00( 40.0%) 
 MO    51 (   14) HAS LZ(WEIGHT)=-4.00( 50.0%)  4.00( 50.0%) 
 MO    52 (   14) HAS LZ(WEIGHT)=-2.00( 50.0%)  2.00( 50.0%) 
 MO    53 (   14) HAS LZ(WEIGHT)=-2.00( 50.0%)  2.00( 50.0%) 
 MO    54 (   14) HAS LZ(WEIGHT)=-5.00( 23.4%) -3.00(  4.7%) -1.00( 21.9%)  1.00( 21.9%)  3.00(  4.7%)  5.00( 23.4%) 
 MO    55 (   14) HAS LZ(WEIGHT)=-5.00( 23.4%) -3.00(  4.7%) -1.00( 21.9%)  1.00( 21.9%)  3.00(  4.7%)  5.00( 23.4%) 
 MO    56 (   14) HAS LZ(WEIGHT)=-4.00( 10.0%)  0.00( 80.0%)  4.00( 10.0%) 
 MO    57 (   14) HAS LZ(WEIGHT)=-5.00( 25.6%) -1.00( 23.7%)  1.00( 23.7%)  5.00( 25.6%) 
 MO    58 (   14) HAS LZ(WEIGHT)=-5.00( 25.6%) -1.00( 23.7%)  1.00( 23.7%)  5.00( 25.6%) 
 MO    59 (   15) HAS LZ(WEIGHT)=-2.00( 50.0%)  2.00( 50.0%) 
 MO    60 (   15) HAS LZ(WEIGHT)=-1.00( 50.0%)  1.00( 50.0%) 
 MO    61 (   15) HAS LZ(WEIGHT)=-1.00( 50.0%)  1.00( 50.0%) 
 MO    62 (   15) HAS LZ(WEIGHT)=-2.00(  3.4%) -0.00( 93.3%)  2.00(  3.4%) 
 MO    63 (   15) HAS LZ(WEIGHT)=-2.00( 46.6%) -0.00(  6.7%)  2.00( 46.6%) 
 MO    64 (   16) HAS LZ(WEIGHT)= 0.00( 99.9%) 
 MO    65 (   16) HAS LZ(WEIGHT)=-1.00( 50.0%)  1.00( 50.0%) 
 MO    66 (   16) HAS LZ(WEIGHT)=-1.00( 50.0%)  1.00( 50.0%) 
 MO    67 (   17) HAS LZ(WEIGHT)=-4.00( 26.9%) -2.00(  4.0%)  0.00( 38.4%)  2.00(  4.0%)  4.00( 26.9%) 
 MO    68 (   17) HAS LZ(WEIGHT)=-4.00(  2.3%) -2.00( 46.0%)  0.00(  3.3%)  2.00( 46.0%)  4.00(  2.3%) 
 MO    69 (   17) HAS LZ(WEIGHT)=-2.00( 50.0%)  2.00( 50.0%) 
 MO    70 (   17) HAS LZ(WEIGHT)=-3.00( 43.6%) -1.00(  6.4%)  1.00(  6.4%)  3.00( 43.6%) 
 MO    71 (   17) HAS LZ(WEIGHT)=-3.00( 43.7%) -1.00(  6.3%)  1.00(  6.3%)  3.00( 43.7%) 
 MO    72 (   17) HAS LZ(WEIGHT)=-4.00( 50.0%)  4.00( 50.0%) 
 MO    73 (   17) HAS LZ(WEIGHT)=-3.00(  6.4%) -1.00( 43.6%)  1.00( 43.6%)  3.00(  6.4%) 
 MO    74 (   17) HAS LZ(WEIGHT)=-3.00(  6.3%) -1.00( 43.7%)  1.00( 43.7%)  3.00(  6.3%) 
 MO    75 (   17) HAS LZ(WEIGHT)=-4.00( 20.8%)  0.00( 58.3%)  4.00( 20.8%) 
 MO    76 (   18) HAS LZ(WEIGHT)= 0.00(100.0%) 
 MO    77 (   19) HAS LZ(WEIGHT)=-2.00( 50.0%)  2.00( 50.0%) 
 MO    78 (   19) HAS LZ(WEIGHT)=-3.00( 18.8%) -1.00( 31.2%)  1.00( 31.2%)  3.00( 18.8%) 
 MO    79 (   19) HAS LZ(WEIGHT)=-3.00( 18.8%) -1.00( 31.2%)  1.00( 31.2%)  3.00( 18.8%) 
 MO    80 (   19) HAS LZ(WEIGHT)=-2.00( 50.0%)  2.00( 50.0%) 
 MO    81 (   19) HAS LZ(WEIGHT)=-0.00(100.0%) 
 MO    82 (   19) HAS LZ(WEIGHT)=-3.00( 31.2%) -1.00( 18.8%)  1.00( 18.8%)  3.00( 31.2%) 
 MO    83 (   19) HAS LZ(WEIGHT)=-3.00( 31.2%) -1.00( 18.8%)  1.00( 18.8%)  3.00( 31.2%) 
 MO    84 (   20) HAS LZ(WEIGHT)=-2.00( 49.6%)  2.00( 49.6%) 
 MO    85 (   20) HAS LZ(WEIGHT)=-1.00( 49.6%)  1.00( 49.6%) 
 MO    86 (   20) HAS LZ(WEIGHT)=-1.00( 50.0%)  1.00( 50.0%) 
 MO    87 (   20) HAS LZ(WEIGHT)=-2.00(  3.4%) -0.00( 93.2%)  2.00(  3.4%) 
 MO    88 (   20) HAS LZ(WEIGHT)=-2.00( 46.6%) -0.00(  6.8%)  2.00( 46.6%) 
 MO    89 (   21) HAS LZ(WEIGHT)=-1.00(  3.3%) -0.00( 93.4%)  1.00(  3.3%) 
 MO    90 (   21) HAS LZ(WEIGHT)=-1.00( 46.7%) -0.00(  6.6%)  1.00( 46.7%) 
 MO    91 (   21) HAS LZ(WEIGHT)=-1.00( 50.0%)  1.00( 50.0%) 
 MO    92 (   22) HAS LZ(WEIGHT)=-5.00( 20.1%) -3.00(  1.9%) -1.00( 27.9%)  1.00( 27.9%)  3.00(  1.9%)  5.00( 20.1%) 
 MO    93 (   22) HAS LZ(WEIGHT)=-5.00( 20.2%) -3.00(  1.9%) -1.00( 27.9%)  1.00( 27.9%)  3.00(  1.9%)  5.00( 20.2%) 
 MO    94 (   22) HAS LZ(WEIGHT)=-4.00( 24.9%)  0.00( 50.2%)  4.00( 24.9%) 
 MO    95 (   22) HAS LZ(WEIGHT)=-4.00( 24.8%)  0.00( 49.3%)  4.00( 24.8%) 
 MO    96 (   22) HAS LZ(WEIGHT)=-5.00(  6.4%) -3.00( 42.9%)  3.00( 42.9%)  5.00(  6.4%) 
 MO    97 (   22) HAS LZ(WEIGHT)=-5.00(  6.5%) -3.00( 43.3%)  3.00( 43.3%)  5.00(  6.5%) 
 MO    98 (   22) HAS LZ(WEIGHT)=-2.00( 50.0%)  2.00( 50.0%) 
 MO    99 (   22) HAS LZ(WEIGHT)=-4.00( 50.0%)  4.00( 50.0%) 
 MO   100 (   22) HAS LZ(WEIGHT)=-5.00( 23.4%) -3.00(  4.7%) -1.00( 21.9%)  1.00( 21.9%)  3.00(  4.7%)  5.00( 23.4%) 
 MO   101 (   22) HAS LZ(WEIGHT)=-5.00( 23.4%) -3.00(  4.7%) -1.00( 21.9%)  1.00( 21.9%)  3.00(  4.7%)  5.00( 23.4%) 
 MO   102 (   22) HAS LZ(WEIGHT)=-2.00( 50.0%)  2.00( 50.0%) 
 MO   103 (   23) HAS LZ(WEIGHT)=-2.00( 49.9%)  2.00( 49.9%) 
 MO   104 (   23) HAS LZ(WEIGHT)=-3.00( 43.7%) -1.00(  6.3%)  1.00(  6.3%)  3.00( 43.7%) 
 MO   105 (   23) HAS LZ(WEIGHT)=-3.00( 43.7%) -1.00(  6.3%)  1.00(  6.3%)  3.00( 43.7%) 
 MO   106 (   23) HAS LZ(WEIGHT)=-4.00( 24.3%) -2.00(  8.3%)  0.00( 34.8%)  2.00(  8.3%)  4.00( 24.3%) 
 MO   107 (   23) HAS LZ(WEIGHT)=-4.00(  4.8%) -2.00( 41.7%)  0.00(  6.9%)  2.00( 41.7%)  4.00(  4.8%) 
 MO   108 (   23) HAS LZ(WEIGHT)=-4.00( 50.0%)  4.00( 50.0%) 
 MO   109 (   23) HAS LZ(WEIGHT)=-3.00(  6.3%) -1.00( 43.7%)  1.00( 43.7%)  3.00(  6.3%) 
 MO   110 (   23) HAS LZ(WEIGHT)=-3.00(  6.3%) -1.00( 43.7%)  1.00( 43.7%)  3.00(  6.3%) 
 MO   111 (   23) HAS LZ(WEIGHT)=-4.00( 20.8%)  0.00( 58.3%)  4.00( 20.8%) 
 MO   112 (   24) HAS LZ(WEIGHT)=-2.00( 50.0%)  2.00( 50.0%) 
 MO   113 (   24) HAS LZ(WEIGHT)=-3.00(  3.3%) -2.00( 41.2%) -1.00(  5.5%)  1.00(  5.5%)  2.00( 41.2%)  3.00(  3.3%) 
 MO   114 (   24) HAS LZ(WEIGHT)=-3.00( 15.7%) -2.00(  8.2%) -1.00( 26.1%)  1.00( 26.1%)  2.00(  8.2%)  3.00( 15.7%) 
 MO   115 (   24) HAS LZ(WEIGHT)=-3.00( 18.5%) -1.00( 30.9%)  1.00( 30.9%)  3.00( 18.5%) 
 MO   116 (   24) HAS LZ(WEIGHT)=-3.00( 29.2%) -1.00( 17.6%)  0.00(  6.4%)  1.00( 17.6%)  3.00( 29.2%) 
 MO   117 (   24) HAS LZ(WEIGHT)=-3.00( 21.6%) -1.00( 13.0%)  0.00( 30.9%)  1.00( 13.0%)  3.00( 21.6%) 
 MO   118 (   24) HAS LZ(WEIGHT)=-3.00( 11.7%) -1.00(  7.0%)  0.00( 62.7%)  1.00(  7.0%)  3.00( 11.7%) 
 MO   119 (   25) HAS LZ(WEIGHT)= 0.00(100.0%) 
 MO   120 (   26) HAS LZ(WEIGHT)=-2.00( 47.6%) -1.00(  2.4%)  1.00(  2.4%)  2.00( 47.6%) 
 MO   121 (   26) HAS LZ(WEIGHT)=-2.00(  2.4%) -1.00( 47.6%)  1.00( 47.6%)  2.00(  2.4%) 
 MO   122 (   26) HAS LZ(WEIGHT)=-1.00( 50.0%)  1.00( 50.0%) 
 MO   123 (   26) HAS LZ(WEIGHT)=-2.00(  3.6%)  0.00( 92.8%)  2.00(  3.6%) 
 MO   124 (   26) HAS LZ(WEIGHT)=-2.00( 46.4%)  0.00(  7.2%)  2.00( 46.4%) 
 MO   125 (   27) HAS LZ(WEIGHT)=-1.00( 48.9%) -0.00(  2.1%)  1.00( 48.9%) 
 MO   126 (   27) HAS LZ(WEIGHT)=-1.00(  1.9%) -0.00( 96.2%)  1.00(  1.9%) 
 MO   127 (   27) HAS LZ(WEIGHT)=-1.00( 49.1%) -0.00(  1.7%)  1.00( 49.1%) 

          ------------
          EIGENVECTORS
          ------------

                      1          2          3          4          5
                   -0.5671     0.0399     0.1768     0.1768     0.1768
                     A          A          A          A          A   
    1  HE 1  S    1.003810  -0.210416  -0.000000   0.000000   0.000000
    2  HE 1  S    0.000683  -0.011218  -0.000000   0.000000   0.000000
    3  HE 1  S   -0.004344   0.028897  -0.000000   0.000000   0.000000
    4  HE 1  S   -0.012921  -0.138180  -0.000000   0.000000   0.000000
    5  HE 1  S   -0.015183   0.249638  -0.000000   0.000000   0.000000
    6  HE 1  S    0.031526  -0.746153  -0.000000   0.000000   0.000000
    7  HE 1  S    0.007297   1.465510  -0.000000   0.000000   0.000000
    8  HE 1  X   -0.000000   0.000000  -0.000464  -0.001867  -0.000391
    9  HE 1  Y   -0.000000   0.000000  -0.001678   0.000208   0.000998
   10  HE 1  Z   -0.000000   0.000000  -0.000908   0.000570  -0.001645
   11  HE 1  X   -0.000000   0.000000   0.002918   0.011750   0.002462
   12  HE 1  Y   -0.000000   0.000000   0.010558  -0.001306  -0.006282
   13  HE 1  Z   -0.000000   0.000000   0.005714  -0.003588   0.010349
   14  HE 1  X   -0.000000   0.000000  -0.007282  -0.029323  -0.006144
   15  HE 1  Y   -0.000000   0.000000  -0.026348   0.003258   0.015678
   16  HE 1  Z   -0.000000   0.000000  -0.014261   0.008953  -0.025828
   17  HE 1  X   -0.000000   0.000000   0.029962   0.120646   0.025278
   18  HE 1  Y   -0.000000   0.000000   0.108405  -0.013407  -0.064504
   19  HE 1  Z   -0.000000   0.000000   0.058675  -0.036837   0.106266
   20  HE 1  X   -0.000000   0.000000  -0.048155  -0.193906  -0.040628
   21  HE 1  Y   -0.000000   0.000000  -0.174232   0.021547   0.103673
   22  HE 1  Z   -0.000000   0.000000  -0.094305   0.059205  -0.170794
   23  HE 1  X   -0.000000   0.000000   0.259836   1.046281   0.219221
   24  HE 1  Y   -0.000000   0.000000   0.940124  -0.116266  -0.559398
   25  HE 1  Z   -0.000000   0.000000   0.508850  -0.319461   0.921571
   26  HE 1 XX   -0.000000   0.000000  -0.000000   0.000000   0.000000
   27  HE 1 YY   -0.000000   0.000000  -0.000000   0.000000   0.000000
   28  HE 1 ZZ   -0.000000   0.000000  -0.000000   0.000000   0.000000
   29  HE 1 XY   -0.000000   0.000000  -0.000000   0.000000   0.000000
   30  HE 1 XZ   -0.000000   0.000000  -0.000000   0.000000   0.000000
   31  HE 1 YZ   -0.000000   0.000000  -0.000000   0.000000   0.000000
   32  HE 1 XX   -0.000000   0.000000  -0.000000   0.000000   0.000000
   33  HE 1 YY   -0.000000   0.000000  -0.000000   0.000000   0.000000
   34  HE 1 ZZ   -0.000000   0.000000  -0.000000   0.000000   0.000000
   35  HE 1 XY   -0.000000   0.000000  -0.000000   0.000000   0.000000
   36  HE 1 XZ   -0.000000   0.000000  -0.000000   0.000000   0.000000
   37  HE 1 YZ   -0.000000   0.000000  -0.000000   0.000000   0.000000
   38  HE 1 XX   -0.000000   0.000000  -0.000000   0.000000   0.000000
   39  HE 1 YY   -0.000000   0.000000  -0.000000   0.000000   0.000000
   40  HE 1 ZZ   -0.000000   0.000000  -0.000000   0.000000   0.000000
   41  HE 1 XY   -0.000000   0.000000  -0.000000   0.000000   0.000000
   42  HE 1 XZ   -0.000000   0.000000  -0.000000   0.000000   0.000000
   43  HE 1 YZ   -0.000000   0.000000  -0.000000   0.000000   0.000000
   44  HE 1 XX   -0.000000   0.000000  -0.000000   0.000000   0.000000
   45  HE 1 YY   -0.000000   0.000000  -0.000000   0.000000   0.000000
   46  HE 1 ZZ   -0.000000   0.000000  -0.000000   0.000000   0.000000
   47  HE 1 XY   -0.000000   0.000000  -0.000000   0.000000   0.000000
   48  HE 1 XZ   -0.000000   0.000000  -0.000000   0.000000   0.000000
   49  HE 1 YZ   -0.000000   0.000000  -0.000000   0.000000   0.000000
   50  HE 1 XX   -0.000000   0.000000  -0.000000   0.000000   0.000000
   51  HE 1 YY   -0.000000   0.000000  -0.000000   0.000000   0.000000
   52  HE 1 ZZ   -0.000000   0.000000  -0.000000   0.000000   0.000000
   53  HE 1 XY   -0.000000   0.000000  -0.000000   0.000000   0.000000
   54  HE 1 XZ   -0.000000   0.000000  -0.000000   0.000000   0.000000
   55  HE 1 YZ   -0.000000   0.000000  -0.000000   0.000000   0.000000
   56  HE 1 XXX  -0.000000   0.000000   0.000000   0.000000   0.000000
   57  HE 1 YYY  -0.000000   0.000000   0.000000  -0.000000  -0.000000
   58  HE 1 ZZZ  -0.000000   0.000000   0.000000  -0.000000   0.000000
   59  HE 1 XXY  -0.000000   0.000000  -0.000000   0.000000   0.000000
   60  HE 1 XXZ  -0.000000   0.000000  -0.000000   0.000000  -0.000000
   61  HE 1 YYX  -0.000000   0.000000  -0.000000  -0.000000  -0.000000
   62  HE 1 YYZ  -0.000000   0.000000  -0.000000   0.000000  -0.000000
   63  HE 1 ZZX  -0.000000   0.000000  -0.000000  -0.000000  -0.000000
   64  HE 1 ZZY  -0.000000   0.000000  -0.000000   0.000000   0.000000
   65  HE 1 XYZ  -0.000000   0.000000  -0.000000   0.000000   0.000000
   66  HE 1 XXX  -0.000000   0.000000   0.000000   0.000000   0.000000
   67  HE 1 YYY  -0.000000   0.000000   0.000000  -0.000000  -0.000000
   68  HE 1 ZZZ  -0.000000   0.000000   0.000000  -0.000000   0.000000
   69  HE 1 XXY  -0.000000   0.000000  -0.000000   0.000000   0.000000
   70  HE 1 XXZ  -0.000000   0.000000  -0.000000   0.000000  -0.000000
   71  HE 1 YYX  -0.000000   0.000000  -0.000000  -0.000000  -0.000000
   72  HE 1 YYZ  -0.000000   0.000000  -0.000000   0.000000  -0.000000
   73  HE 1 ZZX  -0.000000   0.000000  -0.000000  -0.000000  -0.000000
   74  HE 1 ZZY  -0.000000   0.000000  -0.000000   0.000000   0.000000
   75  HE 1 XYZ  -0.000000   0.000000  -0.000000   0.000000   0.000000
   76  HE 1 XXX  -0.000000   0.000000   0.000000   0.000000   0.000000
   77  HE 1 YYY  -0.000000   0.000000   0.000000  -0.000000  -0.000000
   78  HE 1 ZZZ  -0.000000   0.000000   0.000000  -0.000000   0.000000
   79  HE 1 XXY  -0.000000   0.000000  -0.000000   0.000000   0.000000
   80  HE 1 XXZ  -0.000000   0.000000  -0.000000   0.000000  -0.000000
   81  HE 1 YYX  -0.000000   0.000000  -0.000000  -0.000000  -0.000000
   82  HE 1 YYZ  -0.000000   0.000000  -0.000000   0.000000  -0.000000
   83  HE 1 ZZX  -0.000000   0.000000  -0.000000  -0.000000  -0.000000
   84  HE 1 ZZY  -0.000000   0.000000  -0.000000   0.000000   0.000000
   85  HE 1 XYZ  -0.000000   0.000000  -0.000000   0.000000   0.000000
   86  HE 1 XXX  -0.000000   0.000000   0.000000   0.000000   0.000000
   87  HE 1 YYY  -0.000000   0.000000   0.000000  -0.000000  -0.000000
   88  HE 1 ZZZ  -0.000000   0.000000   0.000000  -0.000000   0.000000
   89  HE 1 XXY  -0.000000   0.000000  -0.000000   0.000000   0.000000
   90  HE 1 XXZ  -0.000000   0.000000  -0.000000   0.000000  -0.000000
   91  HE 1 YYX  -0.000000   0.000000  -0.000000  -0.000000  -0.000000
   92  HE 1 YYZ  -0.000000   0.000000  -0.000000   0.000000  -0.000000
   93  HE 1 ZZX  -0.000000   0.000000  -0.000000  -0.000000  -0.000000
   94  HE 1 ZZY  -0.000000   0.000000  -0.000000   0.000000   0.000000
   95  HE 1 XYZ  -0.000000   0.000000  -0.000000   0.000000   0.000000
   96  HE 1XXXX  -0.000000   0.000000  -0.000000   0.000000   0.000000
   97  HE 1YYYY  -0.000000   0.000000  -0.000000   0.000000   0.000000
   98  HE 1ZZZZ  -0.000000   0.000000  -0.000000   0.000000   0.000000
   99  HE 1XXXY  -0.000000   0.000000  -0.000000   0.000000   0.000000
  100  HE 1XXXZ  -0.000000   0.000000  -0.000000   0.000000   0.000000
  101  HE 1YYYX  -0.000000   0.000000  -0.000000   0.000000   0.000000
  102  HE 1YYYZ  -0.000000   0.000000  -0.000000   0.000000   0.000000
  103  HE 1ZZZX  -0.000000   0.000000  -0.000000   0.000000   0.000000
  104  HE 1ZZZY  -0.000000   0.000000  -0.000000   0.000000   0.000000
  105  HE 1XXYY   0.000000  -0.000000  -0.000000   0.000000   0.000000
  106  HE 1XXZZ   0.000000  -0.000000  -0.000000   0.000000   0.000000
  107  HE 1YYZZ   0.000000  -0.000000  -0.000000   0.000000   0.000000
  108  HE 1XXYZ  -0.000000   0.000000  -0.000000   0.000000   0.000000
  109  HE 1YYXZ  -0.000000   0.000000  -0.000000   0.000000   0.000000
  110  HE 1ZZXY  -0.000000   0.000000  -0.000000   0.000000   0.000000
  111  HE 1XXXX  -0.000000   0.000000  -0.000000   0.000000   0.000000
  112  HE 1YYYY  -0.000000   0.000000  -0.000000   0.000000   0.000000
  113  HE 1ZZZZ  -0.000000   0.000000  -0.000000   0.000000   0.000000
  114  HE 1XXXY  -0.000000   0.000000  -0.000000   0.000000   0.000000
  115  HE 1XXXZ  -0.000000   0.000000  -0.000000   0.000000   0.000000
  116  HE 1YYYX  -0.000000   0.000000  -0.000000   0.000000   0.000000
  117  HE 1YYYZ  -0.000000   0.000000  -0.000000   0.000000   0.000000
  118  HE 1ZZZX  -0.000000   0.000000  -0.000000   0.000000   0.000000
  119  HE 1ZZZY  -0.000000   0.000000  -0.000000   0.000000   0.000000
  120  HE 1XXYY   0.000000  -0.000000  -0.000000   0.000000   0.000000
  121  HE 1XXZZ   0.000000  -0.000000  -0.000000   0.000000   0.000000
  122  HE 1YYZZ   0.000000  -0.000000  -0.000000   0.000000   0.000000
  123  HE 1XXYZ  -0.000000   0.000000  -0.000000   0.000000   0.000000
  124  HE 1YYXZ  -0.000000   0.000000  -0.000000   0.000000   0.000000
  125  HE 1ZZXY  -0.000000   0.000000  -0.000000   0.000000   0.000000
  126  HE 1XXXX  -0.000000  -0.000000  -0.000000   0.000000   0.000000
  127  HE 1YYYY  -0.000000  -0.000000  -0.000000   0.000000   0.000000
  128  HE 1ZZZZ  -0.000000  -0.000000  -0.000000   0.000000   0.000000
  129  HE 1XXXY  -0.000000   0.000000  -0.000000   0.000000   0.000000
  130  HE 1XXXZ  -0.000000   0.000000  -0.000000   0.000000   0.000000
  131  HE 1YYYX  -0.000000   0.000000  -0.000000   0.000000   0.000000
  132  HE 1YYYZ  -0.000000   0.000000  -0.000000   0.000000   0.000000
  133  HE 1ZZZX  -0.000000   0.000000  -0.000000   0.000000   0.000000
  134  HE 1ZZZY  -0.000000   0.000000  -0.000000   0.000000   0.000000
  135  HE 1XXYY   0.000000   0.000000  -0.000000   0.000000   0.000000
  136  HE 1XXZZ   0.000000   0.000000  -0.000000   0.000000   0.000000
  137  HE 1YYZZ   0.000000   0.000000  -0.000000   0.000000   0.000000
  138  HE 1XXYZ  -0.000000   0.000000  -0.000000   0.000000   0.000000
  139  HE 1YYXZ  -0.000000   0.000000  -0.000000   0.000000   0.000000
  140  HE 1ZZXY  -0.000000   0.000000  -0.000000   0.000000   0.000000
  141  HE XXXXX  -0.000000   0.000000   0.000000   0.000000   0.000000
  142  HE YYYYY  -0.000000   0.000000   0.000000  -0.000000  -0.000000
  143  HE ZZZZZ  -0.000000   0.000000   0.000000  -0.000000   0.000000
  144  HE XXXXY  -0.000000   0.000000   0.000000  -0.000000  -0.000000
  145  HE XXXXZ  -0.000000   0.000000   0.000000  -0.000000   0.000000
  146  HE YYYYX  -0.000000   0.000000   0.000000   0.000000   0.000000
  147  HE YYYYZ  -0.000000   0.000000   0.000000  -0.000000   0.000000
  148  HE ZZZZX  -0.000000   0.000000   0.000000   0.000000   0.000000
  149  HE ZZZZY  -0.000000   0.000000   0.000000  -0.000000  -0.000000
  150  HE XXXYY  -0.000000   0.000000  -0.000000  -0.000000  -0.000000
  151  HE XXXZZ  -0.000000   0.000000  -0.000000  -0.000000  -0.000000
  152  HE YYYXX  -0.000000   0.000000  -0.000000   0.000000   0.000000
  153  HE YYYZZ  -0.000000   0.000000  -0.000000   0.000000   0.000000
  154  HE ZZZXX  -0.000000   0.000000  -0.000000   0.000000  -0.000000
  155  HE ZZZYY  -0.000000   0.000000  -0.000000   0.000000  -0.000000
  156  HE XXXYZ  -0.000000   0.000000  -0.000000   0.000000   0.000000
  157  HE YYYXZ  -0.000000   0.000000  -0.000000   0.000000   0.000000
  158  HE ZZZXY  -0.000000   0.000000  -0.000000   0.000000   0.000000
  159  HE XXYYZ  -0.000000   0.000000  -0.000000   0.000000  -0.000000
  160  HE XXZZY  -0.000000   0.000000  -0.000000   0.000000   0.000000
  161  HE YYZZX  -0.000000   0.000000  -0.000000  -0.000000  -0.000000
  162  HE XXXXX  -0.000000   0.000000  -0.000000  -0.000000  -0.000000
  163  HE YYYYY  -0.000000   0.000000  -0.000000   0.000000   0.000000
  164  HE ZZZZZ  -0.000000   0.000000  -0.000000   0.000000  -0.000000
  165  HE XXXXY  -0.000000   0.000000  -0.000000   0.000000   0.000000
  166  HE XXXXZ  -0.000000   0.000000  -0.000000   0.000000  -0.000000
  167  HE YYYYX  -0.000000   0.000000  -0.000000  -0.000000  -0.000000
  168  HE YYYYZ  -0.000000   0.000000  -0.000000   0.000000  -0.000000
  169  HE ZZZZX  -0.000000   0.000000  -0.000000  -0.000000  -0.000000
  170  HE ZZZZY  -0.000000   0.000000  -0.000000   0.000000   0.000000
  171  HE XXXYY  -0.000000   0.000000   0.000000   0.000000   0.000000
  172  HE XXXZZ  -0.000000   0.000000   0.000000   0.000000   0.000000
  173  HE YYYXX  -0.000000   0.000000   0.000000  -0.000000  -0.000000
  174  HE YYYZZ  -0.000000   0.000000   0.000000  -0.000000  -0.000000
  175  HE ZZZXX  -0.000000   0.000000   0.000000  -0.000000   0.000000
  176  HE ZZZYY  -0.000000   0.000000   0.000000  -0.000000   0.000000
  177  HE XXXYZ  -0.000000   0.000000  -0.000000   0.000000   0.000000
  178  HE YYYXZ  -0.000000   0.000000  -0.000000   0.000000   0.000000
  179  HE ZZZXY  -0.000000   0.000000  -0.000000   0.000000   0.000000
  180  HE XXYYZ  -0.000000   0.000000   0.000000  -0.000000   0.000000
  181  HE XXZZY  -0.000000   0.000000   0.000000  -0.000000  -0.000000
  182  HE YYZZX  -0.000000   0.000000   0.000000   0.000000   0.000000

                      6          7          8          9         10
                    0.3684     0.6587     0.6587     0.6587     0.6587
                     A          A          A          A          A   
    1  HE 1  S   -0.566923   0.000000  -0.000000  -0.000000   0.000000
    2  HE 1  S    0.047596   0.000000  -0.000000  -0.000000   0.000000
    3  HE 1  S   -0.169608   0.000000  -0.000000  -0.000000   0.000000
    4  HE 1  S    0.572059   0.000000  -0.000000  -0.000000   0.000000
    5  HE 1  S   -1.888967   0.000000  -0.000000  -0.000000   0.000000
    6  HE 1  S    3.438609   0.000000  -0.000000  -0.000000   0.000000
    7  HE 1  S   -1.474454   0.000000  -0.000000  -0.000000   0.000000
    8  HE 1  X    0.000000   0.000000  -0.000000  -0.000000   0.000000
    9  HE 1  Y    0.000000   0.000000  -0.000000  -0.000000   0.000000
   10  HE 1  Z    0.000000   0.000000  -0.000000  -0.000000   0.000000
   11  HE 1  X    0.000000   0.000000  -0.000000  -0.000000   0.000000
   12  HE 1  Y    0.000000   0.000000  -0.000000  -0.000000   0.000000
   13  HE 1  Z    0.000000   0.000000  -0.000000  -0.000000   0.000000
   14  HE 1  X    0.000000   0.000000  -0.000000  -0.000000   0.000000
   15  HE 1  Y    0.000000   0.000000  -0.000000  -0.000000   0.000000
   16  HE 1  Z    0.000000   0.000000  -0.000000  -0.000000   0.000000
   17  HE 1  X    0.000000   0.000000  -0.000000  -0.000000   0.000000
   18  HE 1  Y    0.000000   0.000000  -0.000000  -0.000000   0.000000
   19  HE 1  Z    0.000000   0.000000  -0.000000  -0.000000   0.000000
   20  HE 1  X    0.000000   0.000000  -0.000000  -0.000000   0.000000
   21  HE 1  Y    0.000000   0.000000  -0.000000  -0.000000   0.000000
   22  HE 1  Z    0.000000   0.000000  -0.000000  -0.000000   0.000000
   23  HE 1  X    0.000000   0.000000  -0.000000  -0.000000   0.000000
   24  HE 1  Y    0.000000   0.000000  -0.000000  -0.000000   0.000000
   25  HE 1  Z    0.000000   0.000000  -0.000000  -0.000000   0.000000
   26  HE 1 XX    0.000000   0.000000  -0.000000   0.000000   0.004659
   27  HE 1 YY    0.000000  -0.000000   0.000000  -0.000000  -0.003410
   28  HE 1 ZZ    0.000000  -0.000000  -0.000000  -0.000000  -0.001249
   29  HE 1 XY    0.000000   0.000012   0.000374   0.004808  -0.000000
   30  HE 1 XZ    0.000000   0.000126   0.004807  -0.000374   0.000000
   31  HE 1 YZ    0.000000   0.004821  -0.000127  -0.000002  -0.000000
   32  HE 1 XX    0.000000  -0.000000   0.000000  -0.000000  -0.020863
   33  HE 1 YY    0.000000   0.000000  -0.000000   0.000000   0.015270
   34  HE 1 ZZ    0.000000   0.000000   0.000000   0.000000   0.005593
   35  HE 1 XY    0.000000  -0.000054  -0.001676  -0.021533   0.000000
   36  HE 1 XZ    0.000000  -0.000566  -0.021526   0.001677  -0.000000
   37  HE 1 YZ    0.000000  -0.021591   0.000568   0.000010   0.000000
   38  HE 1 XX    0.000000   0.000000  -0.000000   0.000001   0.074834
   39  HE 1 YY    0.000000  -0.000000   0.000000  -0.000000  -0.054773
   40  HE 1 ZZ    0.000000  -0.000000  -0.000000  -0.000000  -0.020061
   41  HE 1 XY    0.000000   0.000195   0.006012   0.077237  -0.000001
   42  HE 1 XZ    0.000000   0.002029   0.077211  -0.006016   0.000000
   43  HE 1 YZ    0.000000   0.077444  -0.002038  -0.000036  -0.000000
   44  HE 1 XX    0.000000  -0.000001   0.000000  -0.000002  -0.200420
   45  HE 1 YY    0.000000   0.000000  -0.000001   0.000001   0.146693
   46  HE 1 ZZ    0.000000   0.000000   0.000000   0.000001   0.053726
   47  HE 1 XY    0.000000  -0.000521  -0.016103  -0.206856   0.000002
   48  HE 1 XZ    0.000000  -0.005435  -0.206785   0.016111  -0.000001
   49  HE 1 YZ    0.000000  -0.207411   0.005459   0.000098   0.000001
   50  HE 1 XX    0.000000   0.000003  -0.000002   0.000009   1.062065
   51  HE 1 YY    0.000000  -0.000002   0.000004  -0.000004  -0.777358
   52  HE 1 ZZ    0.000000  -0.000001  -0.000002  -0.000005  -0.284707
   53  HE 1 XY    0.000000   0.002762   0.085331   1.096173  -0.000009
   54  HE 1 XZ    0.000000   0.028800   1.095795  -0.085374   0.000003
   55  HE 1 YZ    0.000000   1.099112  -0.028928  -0.000518  -0.000003
   56  HE 1 XXX   0.000000   0.000000  -0.000000  -0.000000   0.000000
   57  HE 1 YYY   0.000000   0.000000  -0.000000  -0.000000   0.000000
   58  HE 1 ZZZ   0.000000   0.000000  -0.000000  -0.000000   0.000000
   59  HE 1 XXY   0.000000   0.000000  -0.000000  -0.000000   0.000000
   60  HE 1 XXZ   0.000000   0.000000  -0.000000  -0.000000   0.000000
   61  HE 1 YYX   0.000000   0.000000  -0.000000  -0.000000   0.000000
   62  HE 1 YYZ   0.000000   0.000000  -0.000000  -0.000000   0.000000
   63  HE 1 ZZX   0.000000   0.000000  -0.000000  -0.000000   0.000000
   64  HE 1 ZZY   0.000000   0.000000  -0.000000  -0.000000   0.000000
   65  HE 1 XYZ   0.000000   0.000000  -0.000000  -0.000000   0.000000
   66  HE 1 XXX   0.000000   0.000000  -0.000000  -0.000000   0.000000
   67  HE 1 YYY   0.000000   0.000000  -0.000000  -0.000000   0.000000
   68  HE 1 ZZZ   0.000000   0.000000  -0.000000  -0.000000   0.000000
   69  HE 1 XXY   0.000000   0.000000  -0.000000  -0.000000   0.000000
   70  HE 1 XXZ   0.000000   0.000000  -0.000000  -0.000000   0.000000
   71  HE 1 YYX   0.000000   0.000000  -0.000000  -0.000000   0.000000
   72  HE 1 YYZ   0.000000   0.000000  -0.000000  -0.000000   0.000000
   73  HE 1 ZZX   0.000000   0.000000  -0.000000  -0.000000   0.000000
   74  HE 1 ZZY   0.000000   0.000000  -0.000000  -0.000000   0.000000
   75  HE 1 XYZ   0.000000   0.000000  -0.000000  -0.000000   0.000000
   76  HE 1 XXX   0.000000   0.000000  -0.000000  -0.000000   0.000000
   77  HE 1 YYY   0.000000   0.000000  -0.000000  -0.000000   0.000000
   78  HE 1 ZZZ   0.000000   0.000000  -0.000000  -0.000000   0.000000
   79  HE 1 XXY   0.000000   0.000000  -0.000000  -0.000000   0.000000
   80  HE 1 XXZ   0.000000   0.000000  -0.000000  -0.000000   0.000000
   81  HE 1 YYX   0.000000   0.000000  -0.000000  -0.000000   0.000000
   82  HE 1 YYZ   0.000000   0.000000  -0.000000  -0.000000   0.000000
   83  HE 1 ZZX   0.000000   0.000000  -0.000000  -0.000000   0.000000
   84  HE 1 ZZY   0.000000   0.000000  -0.000000  -0.000000   0.000000
   85  HE 1 XYZ   0.000000   0.000000  -0.000000  -0.000000   0.000000
   86  HE 1 XXX   0.000000   0.000000  -0.000000  -0.000000   0.000000
   87  HE 1 YYY   0.000000   0.000000  -0.000000  -0.000000   0.000000
   88  HE 1 ZZZ   0.000000   0.000000  -0.000000  -0.000000   0.000000
   89  HE 1 XXY   0.000000   0.000000  -0.000000  -0.000000   0.000000
   90  HE 1 XXZ   0.000000   0.000000  -0.000000  -0.000000   0.000000
   91  HE 1 YYX   0.000000   0.000000  -0.000000  -0.000000   0.000000
   92  HE 1 YYZ   0.000000   0.000000  -0.000000  -0.000000   0.000000
   93  HE 1 ZZX   0.000000   0.000000  -0.000000  -0.000000   0.000000
   94  HE 1 ZZY   0.000000   0.000000  -0.000000  -0.000000   0.000000
   95  HE 1 XYZ   0.000000   0.000000  -0.000000  -0.000000   0.000000
   96  HE 1XXXX   0.000000   0.000000  -0.000000  -0.000000  -0.000000
   97  HE 1YYYY   0.000000   0.000000  -0.000000  -0.000000   0.000000
   98  HE 1ZZZZ   0.000000   0.000000  -0.000000  -0.000000   0.000000
   99  HE 1XXXY   0.000000   0.000000  -0.000000  -0.000000   0.000000
  100  HE 1XXXZ   0.000000   0.000000  -0.000000  -0.000000   0.000000
  101  HE 1YYYX   0.000000   0.000000  -0.000000  -0.000000   0.000000
  102  HE 1YYYZ   0.000000  -0.000000  -0.000000  -0.000000   0.000000
  103  HE 1ZZZX   0.000000   0.000000  -0.000000  -0.000000   0.000000
  104  HE 1ZZZY   0.000000  -0.000000  -0.000000  -0.000000   0.000000
  105  HE 1XXYY  -0.000000   0.000000  -0.000000  -0.000000   0.000000
  106  HE 1XXZZ  -0.000000   0.000000  -0.000000  -0.000000   0.000000
  107  HE 1YYZZ  -0.000000   0.000000  -0.000000  -0.000000  -0.000000
  108  HE 1XXYZ   0.000000   0.000000  -0.000000  -0.000000   0.000000
  109  HE 1YYXZ   0.000000   0.000000   0.000000  -0.000000   0.000000
  110  HE 1ZZXY   0.000000   0.000000   0.000000   0.000000   0.000000
  111  HE 1XXXX   0.000000   0.000000  -0.000000  -0.000000   0.000000
  112  HE 1YYYY   0.000000   0.000000  -0.000000  -0.000000  -0.000000
  113  HE 1ZZZZ   0.000000   0.000000  -0.000000  -0.000000  -0.000000
  114  HE 1XXXY   0.000000   0.000000   0.000000   0.000000   0.000000
  115  HE 1XXXZ   0.000000   0.000000   0.000000  -0.000000   0.000000
  116  HE 1YYYX   0.000000   0.000000   0.000000   0.000000   0.000000
  117  HE 1YYYZ   0.000000   0.000000  -0.000000  -0.000000   0.000000
  118  HE 1ZZZX   0.000000   0.000000   0.000000  -0.000000   0.000000
  119  HE 1ZZZY   0.000000   0.000000  -0.000000  -0.000000   0.000000
  120  HE 1XXYY  -0.000000   0.000000  -0.000000  -0.000000  -0.000000
  121  HE 1XXZZ  -0.000000   0.000000  -0.000000  -0.000000  -0.000000
  122  HE 1YYZZ  -0.000000   0.000000  -0.000000  -0.000000   0.000000
  123  HE 1XXYZ   0.000000  -0.000000   0.000000  -0.000000   0.000000
  124  HE 1YYXZ   0.000000  -0.000000  -0.000000   0.000000   0.000000
  125  HE 1ZZXY   0.000000   0.000000  -0.000000  -0.000000   0.000000
  126  HE 1XXXX  -0.000000   0.000000  -0.000000  -0.000000   0.000000
  127  HE 1YYYY  -0.000000   0.000000  -0.000000  -0.000000  -0.000000
  128  HE 1ZZZZ  -0.000000   0.000000  -0.000000  -0.000000  -0.000000
  129  HE 1XXXY   0.000000   0.000000   0.000000   0.000000   0.000000
  130  HE 1XXXZ   0.000000   0.000000   0.000000  -0.000000   0.000000
  131  HE 1YYYX   0.000000   0.000000   0.000000   0.000000   0.000000
  132  HE 1YYYZ   0.000000   0.000000  -0.000000  -0.000000   0.000000
  133  HE 1ZZZX   0.000000   0.000000   0.000000  -0.000000   0.000000
  134  HE 1ZZZY   0.000000   0.000000  -0.000000  -0.000000   0.000000
  135  HE 1XXYY   0.000000   0.000000  -0.000000  -0.000000  -0.000000
  136  HE 1XXZZ   0.000000   0.000000  -0.000000  -0.000000  -0.000000
  137  HE 1YYZZ   0.000000   0.000000  -0.000000  -0.000000   0.000000
  138  HE 1XXYZ   0.000000  -0.000000   0.000000  -0.000000   0.000000
  139  HE 1YYXZ   0.000000  -0.000000  -0.000000   0.000000   0.000000
  140  HE 1ZZXY   0.000000   0.000000  -0.000000  -0.000000   0.000000
  141  HE XXXXX   0.000000   0.000000  -0.000000  -0.000000   0.000000
  142  HE YYYYY   0.000000   0.000000  -0.000000  -0.000000   0.000000
  143  HE ZZZZZ   0.000000   0.000000  -0.000000  -0.000000   0.000000
  144  HE XXXXY   0.000000   0.000000  -0.000000  -0.000000   0.000000
  145  HE XXXXZ   0.000000   0.000000  -0.000000  -0.000000   0.000000
  146  HE YYYYX   0.000000   0.000000  -0.000000  -0.000000   0.000000
  147  HE YYYYZ   0.000000   0.000000  -0.000000  -0.000000   0.000000
  148  HE ZZZZX   0.000000   0.000000  -0.000000  -0.000000   0.000000
  149  HE ZZZZY   0.000000   0.000000  -0.000000  -0.000000   0.000000
  150  HE XXXYY   0.000000   0.000000  -0.000000  -0.000000   0.000000
  151  HE XXXZZ   0.000000   0.000000  -0.000000  -0.000000   0.000000
  152  HE YYYXX   0.000000   0.000000  -0.000000  -0.000000   0.000000
  153  HE YYYZZ   0.000000   0.000000  -0.000000  -0.000000   0.000000
  154  HE ZZZXX   0.000000   0.000000  -0.000000  -0.000000   0.000000
  155  HE ZZZYY   0.000000   0.000000  -0.000000  -0.000000   0.000000
  156  HE XXXYZ   0.000000   0.000000  -0.000000  -0.000000   0.000000
  157  HE YYYXZ   0.000000   0.000000  -0.000000  -0.000000   0.000000
  158  HE ZZZXY   0.000000   0.000000  -0.000000  -0.000000   0.000000
  159  HE XXYYZ   0.000000   0.000000  -0.000000  -0.000000   0.000000
  160  HE XXZZY   0.000000   0.000000  -0.000000  -0.000000   0.000000
  161  HE YYZZX   0.000000   0.000000  -0.000000  -0.000000   0.000000
  162  HE XXXXX   0.000000   0.000000  -0.000000  -0.000000   0.000000
  163  HE YYYYY   0.000000   0.000000  -0.000000  -0.000000   0.000000
  164  HE ZZZZZ   0.000000   0.000000  -0.000000  -0.000000   0.000000
  165  HE XXXXY   0.000000   0.000000  -0.000000  -0.000000   0.000000
  166  HE XXXXZ   0.000000   0.000000  -0.000000  -0.000000   0.000000
  167  HE YYYYX   0.000000   0.000000  -0.000000  -0.000000   0.000000
  168  HE YYYYZ   0.000000   0.000000  -0.000000  -0.000000   0.000000
  169  HE ZZZZX   0.000000   0.000000  -0.000000  -0.000000   0.000000
  170  HE ZZZZY   0.000000   0.000000  -0.000000  -0.000000   0.000000
  171  HE XXXYY   0.000000   0.000000  -0.000000  -0.000000   0.000000
  172  HE XXXZZ   0.000000   0.000000  -0.000000  -0.000000   0.000000
  173  HE YYYXX   0.000000   0.000000  -0.000000  -0.000000   0.000000
  174  HE YYYZZ   0.000000   0.000000  -0.000000  -0.000000   0.000000
  175  HE ZZZXX   0.000000   0.000000  -0.000000  -0.000000   0.000000
  176  HE ZZZYY   0.000000   0.000000  -0.000000  -0.000000   0.000000
  177  HE XXXYZ   0.000000   0.000000  -0.000000  -0.000000   0.000000
  178  HE YYYXZ   0.000000   0.000000  -0.000000  -0.000000   0.000000
  179  HE ZZZXY   0.000000   0.000000  -0.000000  -0.000000   0.000000
  180  HE XXYYZ   0.000000   0.000000  -0.000000  -0.000000   0.000000
  181  HE XXZZY   0.000000   0.000000  -0.000000  -0.000000   0.000000
  182  HE YYZZX   0.000000   0.000000  -0.000000  -0.000000   0.000000

                     11         12         13         14         15
                    0.6587     0.8515     0.8515     0.8515     1.4289
                     A          A          A          A          A   
    1  HE 1  S    0.000000   0.000000   0.000000   0.000000  -0.504563
    2  HE 1  S    0.000000   0.000000   0.000000   0.000000  -0.181728
    3  HE 1  S    0.000000   0.000000   0.000000   0.000000   0.531505
    4  HE 1  S    0.000000   0.000000   0.000000   0.000000  -2.778118
    5  HE 1  S    0.000000   0.000000   0.000000   0.000000   5.239313
    6  HE 1  S    0.000000   0.000000   0.000000   0.000000  -3.187967
    7  HE 1  S    0.000000   0.000000   0.000000   0.000000   0.839578
    8  HE 1  X    0.000000   0.009581  -0.004576   0.000399   0.000000
    9  HE 1  Y    0.000000   0.004534   0.009274  -0.002515   0.000000
   10  HE 1  Z    0.000000   0.000736   0.002438   0.010315   0.000000
   11  HE 1  X    0.000000  -0.035650   0.017029  -0.001483   0.000000
   12  HE 1  Y    0.000000  -0.016873  -0.034508   0.009360   0.000000
   13  HE 1  Z    0.000000  -0.002737  -0.009073  -0.038383   0.000000
   14  HE 1  X    0.000000   0.152428  -0.072810   0.006340   0.000000
   15  HE 1  Y    0.000000   0.072142   0.147545  -0.040020   0.000000
   16  HE 1  Z    0.000000   0.011703   0.038792   0.164115   0.000000
   17  HE 1  X    0.000000  -0.350601   0.167471  -0.014583   0.000000
   18  HE 1  Y    0.000000  -0.165935  -0.339370   0.092050   0.000000
   19  HE 1  Z    0.000000  -0.026919  -0.089226  -0.377484   0.000000
   20  HE 1  X    0.000000   1.526609  -0.729213   0.063500   0.000000
   21  HE 1  Y    0.000000   0.722527   1.477708  -0.400813   0.000000
   22  HE 1  Z    0.000000   0.117212   0.388516   1.643665   0.000000
   23  HE 1  X    0.000000  -0.901908   0.430813  -0.037515   0.000000
   24  HE 1  Y    0.000000  -0.426863  -0.873018   0.236797   0.000000
   25  HE 1  Z    0.000000  -0.069248  -0.229532  -0.971063   0.000000
   26  HE 1 XX   -0.001248   0.000000   0.000000   0.000000   0.000000
   27  HE 1 YY   -0.003411   0.000000   0.000000   0.000000   0.000000
   28  HE 1 ZZ    0.004658   0.000000   0.000000   0.000000   0.000000
   29  HE 1 XY    0.000000   0.000000   0.000000   0.000000   0.000000
   30  HE 1 XZ    0.000000   0.000000   0.000000   0.000000   0.000000
   31  HE 1 YZ    0.000000   0.000000   0.000000   0.000000   0.000000
   32  HE 1 XX    0.005587   0.000000   0.000000   0.000000   0.000000
   33  HE 1 YY    0.015274   0.000000   0.000000   0.000000   0.000000
   34  HE 1 ZZ   -0.020862   0.000000   0.000000   0.000000   0.000000
   35  HE 1 XY   -0.000000   0.000000   0.000000   0.000000   0.000000
   36  HE 1 XZ   -0.000000   0.000000   0.000000   0.000000   0.000000
   37  HE 1 YZ   -0.000000   0.000000   0.000000   0.000000   0.000000
   38  HE 1 XX   -0.020041   0.000000   0.000000   0.000000   0.000000
   39  HE 1 YY   -0.054788   0.000000   0.000000   0.000000   0.000000
   40  HE 1 ZZ    0.074829   0.000000   0.000000   0.000000   0.000000
   41  HE 1 XY    0.000000   0.000000   0.000000   0.000000   0.000000
   42  HE 1 XZ    0.000000   0.000000   0.000000   0.000000   0.000000
   43  HE 1 YZ    0.000000   0.000000   0.000000   0.000000   0.000000
   44  HE 1 XX    0.053675   0.000000   0.000000   0.000000   0.000000
   45  HE 1 YY    0.146731   0.000000   0.000000   0.000000   0.000000
   46  HE 1 ZZ   -0.200406   0.000000   0.000000   0.000000   0.000000
   47  HE 1 XY   -0.000001   0.000000   0.000000   0.000000   0.000000
   48  HE 1 XZ   -0.000001   0.000000   0.000000   0.000000   0.000000
   49  HE 1 YZ   -0.000000   0.000000   0.000000   0.000000   0.000000
   50  HE 1 XX   -0.284432   0.000000   0.000000   0.000000   0.000000
   51  HE 1 YY   -0.777559   0.000000   0.000000   0.000000   0.000000
   52  HE 1 ZZ    1.061992   0.000000   0.000000   0.000000   0.000000
   53  HE 1 XY    0.000003   0.000000   0.000000   0.000000   0.000000
   54  HE 1 XZ    0.000003   0.000000   0.000000   0.000000   0.000000
   55  HE 1 YZ    0.000000   0.000000   0.000000   0.000000   0.000000
   56  HE 1 XXX   0.000000  -0.000000   0.000000  -0.000000   0.000000
   57  HE 1 YYY   0.000000  -0.000000  -0.000000   0.000000   0.000000
   58  HE 1 ZZZ   0.000000  -0.000000  -0.000000  -0.000000   0.000000
   59  HE 1 XXY   0.000000   0.000000   0.000000  -0.000000   0.000000
   60  HE 1 XXZ   0.000000   0.000000   0.000000   0.000000   0.000000
   61  HE 1 YYX   0.000000   0.000000  -0.000000   0.000000   0.000000
   62  HE 1 YYZ   0.000000   0.000000   0.000000   0.000000   0.000000
   63  HE 1 ZZX   0.000000   0.000000  -0.000000   0.000000   0.000000
   64  HE 1 ZZY   0.000000   0.000000   0.000000  -0.000000   0.000000
   65  HE 1 XYZ   0.000000   0.000000   0.000000   0.000000   0.000000
   66  HE 1 XXX   0.000000   0.000000  -0.000000   0.000000   0.000000
   67  HE 1 YYY   0.000000   0.000000   0.000000  -0.000000   0.000000
   68  HE 1 ZZZ   0.000000   0.000000   0.000000   0.000000   0.000000
   69  HE 1 XXY   0.000000  -0.000000  -0.000000   0.000000   0.000000
   70  HE 1 XXZ   0.000000  -0.000000  -0.000000  -0.000000   0.000000
   71  HE 1 YYX   0.000000  -0.000000   0.000000  -0.000000   0.000000
   72  HE 1 YYZ   0.000000  -0.000000  -0.000000  -0.000000   0.000000
   73  HE 1 ZZX   0.000000  -0.000000   0.000000  -0.000000   0.000000
   74  HE 1 ZZY   0.000000  -0.000000  -0.000000   0.000000   0.000000
   75  HE 1 XYZ   0.000000   0.000000   0.000000   0.000000   0.000000
   76  HE 1 XXX   0.000000  -0.000000   0.000000  -0.000000   0.000000
   77  HE 1 YYY   0.000000  -0.000000  -0.000000   0.000000   0.000000
   78  HE 1 ZZZ   0.000000  -0.000000  -0.000000  -0.000000   0.000000
   79  HE 1 XXY   0.000000   0.000000   0.000000  -0.000000   0.000000
   80  HE 1 XXZ   0.000000   0.000000   0.000000   0.000000   0.000000
   81  HE 1 YYX   0.000000   0.000000  -0.000000   0.000000   0.000000
   82  HE 1 YYZ   0.000000   0.000000   0.000000   0.000000   0.000000
   83  HE 1 ZZX   0.000000   0.000000  -0.000000   0.000000   0.000000
   84  HE 1 ZZY   0.000000   0.000000   0.000000  -0.000000   0.000000
   85  HE 1 XYZ   0.000000   0.000000   0.000000   0.000000   0.000000
   86  HE 1 XXX   0.000000  -0.000000   0.000000  -0.000000   0.000000
   87  HE 1 YYY   0.000000  -0.000000  -0.000000   0.000000   0.000000
   88  HE 1 ZZZ   0.000000  -0.000000  -0.000000  -0.000000   0.000000
   89  HE 1 XXY   0.000000   0.000000   0.000000  -0.000000   0.000000
   90  HE 1 XXZ   0.000000   0.000000   0.000000   0.000000   0.000000
   91  HE 1 YYX   0.000000   0.000000  -0.000000   0.000000   0.000000
   92  HE 1 YYZ   0.000000   0.000000   0.000000   0.000000   0.000000
   93  HE 1 ZZX   0.000000   0.000000  -0.000000   0.000000   0.000000
   94  HE 1 ZZY   0.000000   0.000000   0.000000  -0.000000   0.000000
   95  HE 1 XYZ   0.000000   0.000000   0.000000   0.000000   0.000000
   96  HE 1XXXX   0.000000   0.000000   0.000000   0.000000   0.000000
   97  HE 1YYYY   0.000000   0.000000   0.000000   0.000000   0.000000
   98  HE 1ZZZZ  -0.000000   0.000000   0.000000   0.000000   0.000000
   99  HE 1XXXY   0.000000   0.000000   0.000000   0.000000   0.000000
  100  HE 1XXXZ   0.000000   0.000000   0.000000   0.000000   0.000000
  101  HE 1YYYX   0.000000   0.000000   0.000000   0.000000   0.000000
  102  HE 1YYYZ   0.000000   0.000000   0.000000   0.000000   0.000000
  103  HE 1ZZZX   0.000000   0.000000   0.000000   0.000000   0.000000
  104  HE 1ZZZY   0.000000   0.000000   0.000000   0.000000   0.000000
  105  HE 1XXYY  -0.000000   0.000000   0.000000   0.000000  -0.000000
  106  HE 1XXZZ   0.000000   0.000000   0.000000   0.000000  -0.000000
  107  HE 1YYZZ   0.000000   0.000000   0.000000   0.000000  -0.000000
  108  HE 1XXYZ   0.000000   0.000000   0.000000   0.000000   0.000000
  109  HE 1YYXZ   0.000000   0.000000   0.000000   0.000000   0.000000
  110  HE 1ZZXY   0.000000   0.000000   0.000000   0.000000   0.000000
  111  HE 1XXXX  -0.000000   0.000000   0.000000   0.000000  -0.000000
  112  HE 1YYYY  -0.000000   0.000000   0.000000   0.000000  -0.000000
  113  HE 1ZZZZ   0.000000   0.000000   0.000000   0.000000  -0.000000
  114  HE 1XXXY   0.000000   0.000000   0.000000   0.000000   0.000000
  115  HE 1XXXZ   0.000000   0.000000   0.000000   0.000000   0.000000
  116  HE 1YYYX   0.000000   0.000000   0.000000   0.000000   0.000000
  117  HE 1YYYZ   0.000000   0.000000   0.000000   0.000000   0.000000
  118  HE 1ZZZX   0.000000   0.000000   0.000000   0.000000   0.000000
  119  HE 1ZZZY   0.000000   0.000000   0.000000   0.000000   0.000000
  120  HE 1XXYY   0.000000   0.000000   0.000000   0.000000   0.000000
  121  HE 1XXZZ  -0.000000   0.000000   0.000000   0.000000   0.000000
  122  HE 1YYZZ  -0.000000   0.000000   0.000000   0.000000   0.000000
  123  HE 1XXYZ   0.000000   0.000000   0.000000   0.000000   0.000000
  124  HE 1YYXZ   0.000000   0.000000   0.000000   0.000000   0.000000
  125  HE 1ZZXY   0.000000   0.000000   0.000000   0.000000   0.000000
  126  HE 1XXXX  -0.000000   0.000000   0.000000   0.000000   0.000000
  127  HE 1YYYY  -0.000000   0.000000   0.000000   0.000000   0.000000
  128  HE 1ZZZZ   0.000000   0.000000   0.000000   0.000000   0.000000
  129  HE 1XXXY   0.000000   0.000000   0.000000   0.000000   0.000000
  130  HE 1XXXZ   0.000000   0.000000   0.000000   0.000000   0.000000
  131  HE 1YYYX   0.000000   0.000000   0.000000   0.000000   0.000000
  132  HE 1YYYZ   0.000000   0.000000   0.000000   0.000000   0.000000
  133  HE 1ZZZX   0.000000   0.000000   0.000000   0.000000   0.000000
  134  HE 1ZZZY   0.000000   0.000000   0.000000   0.000000   0.000000
  135  HE 1XXYY   0.000000   0.000000   0.000000   0.000000  -0.000000
  136  HE 1XXZZ  -0.000000   0.000000   0.000000   0.000000  -0.000000
  137  HE 1YYZZ  -0.000000   0.000000   0.000000   0.000000  -0.000000
  138  HE 1XXYZ   0.000000   0.000000   0.000000   0.000000   0.000000
  139  HE 1YYXZ   0.000000   0.000000   0.000000   0.000000   0.000000
  140  HE 1ZZXY   0.000000   0.000000   0.000000   0.000000   0.000000
  141  HE XXXXX   0.000000  -0.000000   0.000000  -0.000000   0.000000
  142  HE YYYYY   0.000000  -0.000000  -0.000000   0.000000   0.000000
  143  HE ZZZZZ   0.000000  -0.000000  -0.000000  -0.000000   0.000000
  144  HE XXXXY   0.000000  -0.000000  -0.000000   0.000000   0.000000
  145  HE XXXXZ   0.000000  -0.000000  -0.000000  -0.000000   0.000000
  146  HE YYYYX   0.000000  -0.000000   0.000000  -0.000000   0.000000
  147  HE YYYYZ   0.000000  -0.000000  -0.000000  -0.000000   0.000000
  148  HE ZZZZX   0.000000  -0.000000   0.000000  -0.000000   0.000000
  149  HE ZZZZY   0.000000  -0.000000  -0.000000   0.000000   0.000000
  150  HE XXXYY   0.000000   0.000000  -0.000000   0.000000   0.000000
  151  HE XXXZZ   0.000000   0.000000  -0.000000   0.000000   0.000000
  152  HE YYYXX   0.000000   0.000000   0.000000  -0.000000   0.000000
  153  HE YYYZZ   0.000000   0.000000   0.000000  -0.000000   0.000000
  154  HE ZZZXX   0.000000   0.000000   0.000000   0.000000   0.000000
  155  HE ZZZYY   0.000000   0.000000   0.000000   0.000000   0.000000
  156  HE XXXYZ   0.000000   0.000000   0.000000   0.000000   0.000000
  157  HE YYYXZ   0.000000   0.000000   0.000000   0.000000   0.000000
  158  HE ZZZXY   0.000000   0.000000   0.000000   0.000000   0.000000
  159  HE XXYYZ   0.000000   0.000000   0.000000   0.000000   0.000000
  160  HE XXZZY   0.000000   0.000000   0.000000  -0.000000   0.000000
  161  HE YYZZX   0.000000   0.000000  -0.000000   0.000000   0.000000
  162  HE XXXXX   0.000000   0.000000  -0.000000   0.000000   0.000000
  163  HE YYYYY   0.000000   0.000000   0.000000  -0.000000   0.000000
  164  HE ZZZZZ   0.000000   0.000000   0.000000   0.000000   0.000000
  165  HE XXXXY   0.000000   0.000000   0.000000  -0.000000   0.000000
  166  HE XXXXZ   0.000000   0.000000   0.000000   0.000000   0.000000
  167  HE YYYYX   0.000000   0.000000  -0.000000   0.000000   0.000000
  168  HE YYYYZ   0.000000   0.000000   0.000000   0.000000   0.000000
  169  HE ZZZZX   0.000000   0.000000  -0.000000   0.000000   0.000000
  170  HE ZZZZY   0.000000   0.000000   0.000000  -0.000000   0.000000
  171  HE XXXYY   0.000000  -0.000000   0.000000  -0.000000   0.000000
  172  HE XXXZZ   0.000000  -0.000000   0.000000  -0.000000   0.000000
  173  HE YYYXX   0.000000  -0.000000  -0.000000   0.000000   0.000000
  174  HE YYYZZ   0.000000  -0.000000  -0.000000   0.000000   0.000000
  175  HE ZZZXX   0.000000  -0.000000  -0.000000  -0.000000   0.000000
  176  HE ZZZYY   0.000000  -0.000000  -0.000000  -0.000000   0.000000
  177  HE XXXYZ   0.000000   0.000000   0.000000   0.000000   0.000000
  178  HE YYYXZ   0.000000   0.000000   0.000000   0.000000   0.000000
  179  HE ZZZXY   0.000000   0.000000   0.000000   0.000000   0.000000
  180  HE XXYYZ   0.000000   0.000000   0.000000   0.000000   0.000000
  181  HE XXZZY   0.000000   0.000000   0.000000  -0.000000   0.000000
  182  HE YYZZX   0.000000   0.000000  -0.000000   0.000000   0.000000

                     16         17         18         19         20
                    1.5915     1.5915     1.5915     1.5915     1.5915
                     A          A          A          A          A   
    1  HE 1  S    0.000000   0.000000   0.000000  -0.000000  -0.000000
    2  HE 1  S    0.000000   0.000000   0.000000  -0.000000  -0.000000
    3  HE 1  S    0.000000   0.000000   0.000000  -0.000000  -0.000000
    4  HE 1  S    0.000000   0.000000   0.000000  -0.000000  -0.000000
    5  HE 1  S    0.000000   0.000000   0.000000  -0.000000  -0.000000
    6  HE 1  S    0.000000   0.000000   0.000000  -0.000000  -0.000000
    7  HE 1  S    0.000000   0.000000   0.000000  -0.000000  -0.000000
    8  HE 1  X    0.000000   0.000000   0.000000  -0.000000   0.000000
    9  HE 1  Y    0.000000   0.000000   0.000000  -0.000000  -0.000000
   10  HE 1  Z    0.000000   0.000000   0.000000  -0.000000  -0.000000
   11  HE 1  X    0.000000   0.000000   0.000000  -0.000000  -0.000000
   12  HE 1  Y    0.000000   0.000000   0.000000  -0.000000  -0.000000
   13  HE 1  Z    0.000000   0.000000   0.000000  -0.000000  -0.000000
   14  HE 1  X    0.000000   0.000000   0.000000  -0.000000   0.000000
   15  HE 1  Y    0.000000   0.000000   0.000000  -0.000000  -0.000000
   16  HE 1  Z    0.000000   0.000000   0.000000  -0.000000  -0.000000
   17  HE 1  X    0.000000   0.000000   0.000000  -0.000000   0.000000
   18  HE 1  Y    0.000000   0.000000  -0.000000  -0.000000  -0.000000
   19  HE 1  Z    0.000000  -0.000000   0.000000  -0.000000  -0.000000
   20  HE 1  X    0.000000   0.000000   0.000000  -0.000000   0.000000
   21  HE 1  Y    0.000000   0.000000   0.000000  -0.000000  -0.000000
   22  HE 1  Z    0.000000   0.000000   0.000000  -0.000000  -0.000000
   23  HE 1  X    0.000000   0.000000   0.000000  -0.000000  -0.000000
   24  HE 1  Y    0.000000   0.000000   0.000000  -0.000000   0.000000
   25  HE 1  Z    0.000000   0.000000   0.000000  -0.000000  -0.000000
   26  HE 1 XX    0.000000   0.000000   0.000000  -0.000000  -0.000000
   27  HE 1 YY    0.000000   0.000000   0.000000  -0.000000  -0.000000
   28  HE 1 ZZ    0.000000   0.000000   0.000000  -0.000000  -0.000000
   29  HE 1 XY    0.000000   0.000000   0.000000  -0.000000  -0.000000
   30  HE 1 XZ    0.000000   0.000000   0.000000  -0.000000  -0.000000
   31  HE 1 YZ    0.000000   0.000000   0.000000  -0.000000  -0.000000
   32  HE 1 XX    0.000000   0.000000   0.000000  -0.000000  -0.000000
   33  HE 1 YY    0.000000   0.000000   0.000000  -0.000000  -0.000000
   34  HE 1 ZZ    0.000000   0.000000   0.000000  -0.000000  -0.000000
   35  HE 1 XY    0.000000   0.000000   0.000000  -0.000000  -0.000000
   36  HE 1 XZ    0.000000   0.000000   0.000000  -0.000000  -0.000000
   37  HE 1 YZ    0.000000   0.000000   0.000000  -0.000000  -0.000000
   38  HE 1 XX    0.000000   0.000000   0.000000  -0.000000  -0.000000
   39  HE 1 YY    0.000000   0.000000   0.000000  -0.000000  -0.000000
   40  HE 1 ZZ    0.000000   0.000000   0.000000  -0.000000  -0.000000
   41  HE 1 XY    0.000000   0.000000   0.000000  -0.000000  -0.000000
   42  HE 1 XZ    0.000000   0.000000   0.000000  -0.000000  -0.000000
   43  HE 1 YZ    0.000000   0.000000   0.000000  -0.000000  -0.000000
   44  HE 1 XX    0.000000   0.000000   0.000000  -0.000000  -0.000000
   45  HE 1 YY    0.000000   0.000000   0.000000  -0.000000  -0.000000
   46  HE 1 ZZ    0.000000   0.000000   0.000000  -0.000000  -0.000000
   47  HE 1 XY    0.000000   0.000000   0.000000  -0.000000  -0.000000
   48  HE 1 XZ    0.000000   0.000000   0.000000  -0.000000  -0.000000
   49  HE 1 YZ    0.000000   0.000000   0.000000  -0.000000  -0.000000
   50  HE 1 XX    0.000000   0.000000   0.000000  -0.000000  -0.000000
   51  HE 1 YY    0.000000   0.000000   0.000000  -0.000000  -0.000000
   52  HE 1 ZZ    0.000000   0.000000   0.000000  -0.000000  -0.000000
   53  HE 1 XY    0.000000   0.000000   0.000000  -0.000000  -0.000000
   54  HE 1 XZ    0.000000   0.000000   0.000000  -0.000000  -0.000000
   55  HE 1 YZ    0.000000   0.000000   0.000000  -0.000000  -0.000000
   56  HE 1 XXX   0.000000   0.000000   0.000000   0.000002  -0.008444
   57  HE 1 YYY   0.000001   0.000000   0.000003  -0.000000   0.000007
   58  HE 1 ZZZ  -0.000000   0.000001  -0.000000   0.000000   0.000000
   59  HE 1 XXY  -0.000003  -0.000034   0.007309  -0.000137  -0.000005
   60  HE 1 XXZ   0.000000   0.007311   0.000034   0.000000  -0.000000
   61  HE 1 YYX   0.000000  -0.000001   0.000137   0.007310   0.005665
   62  HE 1 YYZ  -0.000000  -0.007313  -0.000034  -0.000000  -0.000000
   63  HE 1 ZZX  -0.000000   0.000001  -0.000137  -0.007312   0.005663
   64  HE 1 ZZY   0.000001   0.000034  -0.007313   0.000137  -0.000005
   65  HE 1 XYZ  -0.008444   0.000000  -0.000002   0.000000   0.000000
   66  HE 1 XXX  -0.000000  -0.000000  -0.000000  -0.000007   0.041623
   67  HE 1 YYY  -0.000007  -0.000000  -0.000015   0.000002  -0.000035
   68  HE 1 ZZZ   0.000000  -0.000007   0.000001  -0.000000  -0.000002
   69  HE 1 XXY   0.000014   0.000168  -0.036030   0.000674   0.000023
   70  HE 1 XXZ  -0.000000  -0.036042  -0.000168  -0.000002   0.000001
   71  HE 1 YYX  -0.000000   0.000005  -0.000676  -0.036036  -0.027928
   72  HE 1 YYZ   0.000000   0.036051   0.000168   0.000002   0.000001
   73  HE 1 ZZX   0.000000  -0.000005   0.000676   0.036046  -0.027915
   74  HE 1 ZZY  -0.000004  -0.000168   0.036050  -0.000677   0.000023
   75  HE 1 XYZ   0.041623  -0.000000   0.000010  -0.000000  -0.000000
   76  HE 1 XXX   0.000000   0.000000   0.000001   0.000027  -0.153911
   77  HE 1 YYY   0.000026   0.000001   0.000055  -0.000007   0.000129
   78  HE 1 ZZZ  -0.000000   0.000027  -0.000002   0.000000   0.000006
   79  HE 1 XXY  -0.000050  -0.000621   0.133229  -0.002494  -0.000086
   80  HE 1 XXZ   0.000000   0.133271   0.000622   0.000006  -0.000004
   81  HE 1 YYX   0.000000  -0.000018   0.002498   0.133249   0.103271
   82  HE 1 YYZ  -0.000000  -0.133308  -0.000620  -0.000006  -0.000004
   83  HE 1 ZZX  -0.000000   0.000018  -0.002499  -0.133286   0.103223
   84  HE 1 ZZY   0.000016   0.000620  -0.133303   0.002503  -0.000087
   85  HE 1 XYZ  -0.153911   0.000000  -0.000038   0.000001   0.000000
   86  HE 1 XXX  -0.000000  -0.000000  -0.000004  -0.000189   1.064575
   87  HE 1 YYY  -0.000178  -0.000008  -0.000381   0.000049  -0.000892
   88  HE 1 ZZZ   0.000000  -0.000189   0.000013  -0.000001  -0.000041
   89  HE 1 XXY   0.000348   0.004298  -0.921522   0.017248   0.000598
   90  HE 1 XXZ  -0.000000  -0.921813  -0.004303  -0.000043   0.000027
   91  HE 1 YYX  -0.000000   0.000124  -0.017277  -0.921660  -0.714303
   92  HE 1 YYZ   0.000000   0.922066   0.004285   0.000044   0.000027
   93  HE 1 ZZX   0.000000  -0.000124   0.017283   0.921914  -0.713975
   94  HE 1 ZZY  -0.000108  -0.004287   0.922033  -0.017313   0.000598
   95  HE 1 XYZ   1.064575  -0.000001   0.000263  -0.000005  -0.000000
   96  HE 1XXXX   0.000000   0.000000   0.000000  -0.000000  -0.000000
   97  HE 1YYYY   0.000000   0.000000   0.000000  -0.000000  -0.000000
   98  HE 1ZZZZ   0.000000   0.000000   0.000000  -0.000000  -0.000000
   99  HE 1XXXY   0.000000   0.000000   0.000000  -0.000000  -0.000000
  100  HE 1XXXZ   0.000000   0.000000   0.000000  -0.000000  -0.000000
  101  HE 1YYYX   0.000000   0.000000   0.000000  -0.000000  -0.000000
  102  HE 1YYYZ   0.000000   0.000000   0.000000  -0.000000  -0.000000
  103  HE 1ZZZX   0.000000   0.000000   0.000000  -0.000000  -0.000000
  104  HE 1ZZZY   0.000000   0.000000   0.000000  -0.000000  -0.000000
  105  HE 1XXYY   0.000000   0.000000   0.000000  -0.000000  -0.000000
  106  HE 1XXZZ   0.000000   0.000000   0.000000  -0.000000  -0.000000
  107  HE 1YYZZ   0.000000   0.000000   0.000000  -0.000000  -0.000000
  108  HE 1XXYZ   0.000000   0.000000   0.000000  -0.000000  -0.000000
  109  HE 1YYXZ   0.000000   0.000000   0.000000  -0.000000  -0.000000
  110  HE 1ZZXY   0.000000   0.000000   0.000000  -0.000000  -0.000000
  111  HE 1XXXX   0.000000   0.000000   0.000000  -0.000000  -0.000000
  112  HE 1YYYY   0.000000   0.000000   0.000000  -0.000000  -0.000000
  113  HE 1ZZZZ   0.000000   0.000000   0.000000  -0.000000  -0.000000
  114  HE 1XXXY   0.000000   0.000000   0.000000  -0.000000  -0.000000
  115  HE 1XXXZ   0.000000   0.000000   0.000000  -0.000000  -0.000000
  116  HE 1YYYX   0.000000   0.000000   0.000000  -0.000000  -0.000000
[...]
   60  HE 1 XXZ  -0.000000   0.000000
   61  HE 1 YYX  -0.000000  -0.000000
   62  HE 1 YYZ  -0.000000   0.000000
   63  HE 1 ZZX  -0.000000  -0.000000
   64  HE 1 ZZY   0.000000  -0.000000
   65  HE 1 XYZ   0.000000  -0.000000
   66  HE 1 XXX  -0.000000  -0.000000
   67  HE 1 YYY   0.000000  -0.000000
   68  HE 1 ZZZ  -0.000000   0.000000
   69  HE 1 XXY   0.000000   0.000000
   70  HE 1 XXZ   0.000000  -0.000000
   71  HE 1 YYX   0.000000   0.000000
   72  HE 1 YYZ   0.000000  -0.000000
   73  HE 1 ZZX   0.000000   0.000000
   74  HE 1 ZZY   0.000000   0.000000
   75  HE 1 XYZ   0.000000  -0.000000
   76  HE 1 XXX   0.000000   0.000000
   77  HE 1 YYY  -0.000000   0.000000
   78  HE 1 ZZZ   0.000000  -0.000000
   79  HE 1 XXY   0.000000  -0.000000
   80  HE 1 XXZ  -0.000000   0.000000
   81  HE 1 YYX  -0.000000  -0.000000
   82  HE 1 YYZ  -0.000000   0.000000
   83  HE 1 ZZX  -0.000000  -0.000000
   84  HE 1 ZZY   0.000000  -0.000000
   85  HE 1 XYZ   0.000000  -0.000000
   86  HE 1 XXX   0.000000   0.000000
   87  HE 1 YYY  -0.000000   0.000000
   88  HE 1 ZZZ   0.000000  -0.000000
   89  HE 1 XXY   0.000000  -0.000000
   90  HE 1 XXZ  -0.000000   0.000000
   91  HE 1 YYX  -0.000000  -0.000000
   92  HE 1 YYZ  -0.000000   0.000000
   93  HE 1 ZZX  -0.000000  -0.000000
   94  HE 1 ZZY   0.000000  -0.000000
   95  HE 1 XYZ   0.000000  -0.000000
   96  HE 1XXXX   0.000000  -0.000000
   97  HE 1YYYY   0.000000  -0.000000
   98  HE 1ZZZZ   0.000000  -0.000000
   99  HE 1XXXY   0.000000  -0.000000
  100  HE 1XXXZ   0.000000  -0.000000
  101  HE 1YYYX   0.000000  -0.000000
  102  HE 1YYYZ   0.000000  -0.000000
  103  HE 1ZZZX   0.000000  -0.000000
  104  HE 1ZZZY   0.000000  -0.000000
  105  HE 1XXYY   0.000000  -0.000000
  106  HE 1XXZZ   0.000000  -0.000000
  107  HE 1YYZZ   0.000000  -0.000000
  108  HE 1XXYZ   0.000000  -0.000000
  109  HE 1YYXZ   0.000000  -0.000000
  110  HE 1ZZXY   0.000000  -0.000000
  111  HE 1XXXX   0.000000  -0.000000
  112  HE 1YYYY   0.000000  -0.000000
  113  HE 1ZZZZ   0.000000  -0.000000
  114  HE 1XXXY   0.000000  -0.000000
  115  HE 1XXXZ   0.000000  -0.000000
  116  HE 1YYYX   0.000000  -0.000000
  117  HE 1YYYZ   0.000000  -0.000000
  118  HE 1ZZZX   0.000000  -0.000000
  119  HE 1ZZZY   0.000000  -0.000000
  120  HE 1XXYY   0.000000  -0.000000
  121  HE 1XXZZ   0.000000  -0.000000
  122  HE 1YYZZ   0.000000  -0.000000
  123  HE 1XXYZ   0.000000  -0.000000
  124  HE 1YYXZ   0.000000  -0.000000
  125  HE 1ZZXY   0.000000  -0.000000
  126  HE 1XXXX   0.000000  -0.000000
  127  HE 1YYYY   0.000000  -0.000000
  128  HE 1ZZZZ   0.000000  -0.000000
  129  HE 1XXXY   0.000000  -0.000000
  130  HE 1XXXZ   0.000000  -0.000000
  131  HE 1YYYX   0.000000  -0.000000
  132  HE 1YYYZ   0.000000  -0.000000
  133  HE 1ZZZX   0.000000  -0.000000
  134  HE 1ZZZY   0.000000  -0.000000
  135  HE 1XXYY   0.000000  -0.000000
  136  HE 1XXZZ   0.000000  -0.000000
  137  HE 1YYZZ   0.000000  -0.000000
  138  HE 1XXYZ   0.000000  -0.000000
  139  HE 1YYXZ   0.000000  -0.000000
  140  HE 1ZZXY   0.000000  -0.000000
  141  HE XXXXX  -0.000000  -0.000000
  142  HE YYYYY   0.000000  -0.000000
  143  HE ZZZZZ  -0.000000   0.000000
  144  HE XXXXY   0.000000  -0.000000
  145  HE XXXXZ  -0.000000   0.000000
  146  HE YYYYX  -0.000000  -0.000000
  147  HE YYYYZ  -0.000000   0.000000
  148  HE ZZZZX  -0.000000  -0.000000
  149  HE ZZZZY   0.000000  -0.000000
  150  HE XXXYY   0.000000   0.000000
  151  HE XXXZZ   0.000000   0.000000
  152  HE YYYXX  -0.000000   0.000000
  153  HE YYYZZ  -0.000000   0.000000
  154  HE ZZZXX   0.000000  -0.000000
  155  HE ZZZYY   0.000000  -0.000000
  156  HE XXXYZ   0.000000  -0.000000
  157  HE YYYXZ   0.000000  -0.000000
  158  HE ZZZXY   0.000000  -0.000000
  159  HE XXYYZ   0.000000  -0.000000
  160  HE XXZZY  -0.000000   0.000000
  161  HE YYZZX   0.000000   0.000000
  162  HE XXXXX  -0.000000  -0.000000
  163  HE YYYYY   0.000000  -0.000000
  164  HE ZZZZZ  -0.000000   0.000000
  165  HE XXXXY  -0.000000   0.000000
  166  HE XXXXZ   0.000000  -0.000000
  167  HE YYYYX   0.000000   0.000000
  168  HE YYYYZ   0.000000  -0.000000
  169  HE ZZZZX   0.000000   0.000000
  170  HE ZZZZY  -0.000000   0.000000
  171  HE XXXYY   0.000000   0.000000
  172  HE XXXZZ   0.000000   0.000000
  173  HE YYYXX   0.000000   0.000000
  174  HE YYYZZ   0.000000   0.000000
  175  HE ZZZXX   0.000000  -0.000000
  176  HE ZZZYY   0.000000  -0.000000
  177  HE XXXYZ   0.000000  -0.000000
  178  HE YYYXZ   0.000000  -0.000000
  179  HE ZZZXY   0.000000  -0.000000
  180  HE XXYYZ  -0.000000   0.000000
  181  HE XXZZY   0.000000  -0.000000
  182  HE YYZZX  -0.000000  -0.000000
 ...... END OF RHF CALCULATION ......
 CPU     0: STEP CPU TIME=    56.26 TOTAL CPU TIME=         56.3 (      0.9 MIN)
 TOTAL WALL CLOCK TIME=         87.5 SECONDS, CPU UTILIZATION IS    64.42%

     ---------------------------------------------------------------------
     PROPERTIES FOR THE USELIBXC DFT FUNCTIONAL (RHF  TYPE) DENSITY MATRIX
     ---------------------------------------------------------------------

          -----------------
          ENERGY COMPONENTS
          -----------------

         WAVEFUNCTION NORMALIZATION =       1.0000000000

                ONE ELECTRON ENERGY =      -3.8637965498
                TWO ELECTRON ENERGY =       1.0112412341
           NUCLEAR REPULSION ENERGY =       0.0000000000
                                      ------------------
                       TOTAL ENERGY =      -2.8525553157

 ELECTRON-ELECTRON POTENTIAL ENERGY =       1.0112412341
  NUCLEUS-ELECTRON POTENTIAL ENERGY =      -6.6576693766
   NUCLEUS-NUCLEUS POTENTIAL ENERGY =       0.0000000000
                                      ------------------
             TOTAL POTENTIAL ENERGY =      -5.6464281425
               TOTAL KINETIC ENERGY =       2.7938728268
                 VIRIAL RATIO (V/T) =       2.0210039943

          ---------------------------------------
          MULLIKEN AND LOWDIN POPULATION ANALYSES
          ---------------------------------------

     ATOMIC MULLIKEN POPULATION IN EACH MOLECULAR ORBITAL

                      1

                  2.000000

    1             2.000000

               ----- POPULATIONS IN EACH AO -----
                             MULLIKEN      LOWDIN
              1  HE 1  S      2.00688     0.20172
              2  HE 1  S      0.00087     0.13603
              3  HE 1  S     -0.00738     0.14768
              4  HE 1  S     -0.02486     0.16367
              5  HE 1  S     -0.02779     0.13981
              6  HE 1  S      0.04591     0.08412
              7  HE 1  S      0.00638     0.02485
              8  HE 1  X      0.00000     0.00000
              9  HE 1  Y      0.00000     0.00000
             10  HE 1  Z      0.00000     0.00000
             11  HE 1  X      0.00000     0.00000
             12  HE 1  Y      0.00000     0.00000
             13  HE 1  Z      0.00000     0.00000
             14  HE 1  X      0.00000     0.00000
             15  HE 1  Y      0.00000     0.00000
             16  HE 1  Z      0.00000     0.00000
             17  HE 1  X      0.00000     0.00000
             18  HE 1  Y      0.00000     0.00000
             19  HE 1  Z      0.00000     0.00000
             20  HE 1  X      0.00000     0.00000
             21  HE 1  Y      0.00000     0.00000
             22  HE 1  Z      0.00000     0.00000
             23  HE 1  X      0.00000     0.00000
             24  HE 1  Y      0.00000     0.00000
             25  HE 1  Z      0.00000     0.00000
             26  HE 1 XX      0.00000     0.03437
             27  HE 1 YY      0.00000     0.03437
             28  HE 1 ZZ      0.00000     0.03437
             29  HE 1 XY      0.00000     0.00000
             30  HE 1 XZ      0.00000     0.00000
             31  HE 1 YZ      0.00000     0.00000
             32  HE 1 XX      0.00000     0.04180
             33  HE 1 YY      0.00000     0.04180
             34  HE 1 ZZ      0.00000     0.04180
             35  HE 1 XY      0.00000     0.00000
             36  HE 1 XZ      0.00000     0.00000
             37  HE 1 YZ      0.00000     0.00000
             38  HE 1 XX      0.00000     0.06053
             39  HE 1 YY      0.00000     0.06053
             40  HE 1 ZZ      0.00000     0.06053
             41  HE 1 XY      0.00000     0.00000
             42  HE 1 XZ      0.00000     0.00000
             43  HE 1 YZ      0.00000     0.00000
             44  HE 1 XX      0.00000     0.05224
             45  HE 1 YY      0.00000     0.05224
             46  HE 1 ZZ      0.00000     0.05224
             47  HE 1 XY      0.00000     0.00000
             48  HE 1 XZ      0.00000     0.00000
             49  HE 1 YZ      0.00000     0.00000
             50  HE 1 XX      0.00000     0.01737
             51  HE 1 YY      0.00000     0.01737
             52  HE 1 ZZ      0.00000     0.01737
             53  HE 1 XY      0.00000     0.00000
             54  HE 1 XZ      0.00000     0.00000
             55  HE 1 YZ      0.00000     0.00000
             56  HE 1 XXX     0.00000     0.00000
             57  HE 1 YYY     0.00000     0.00000
             58  HE 1 ZZZ     0.00000     0.00000
             59  HE 1 XXY     0.00000     0.00000
             60  HE 1 XXZ     0.00000     0.00000
             61  HE 1 YYX     0.00000     0.00000
             62  HE 1 YYZ     0.00000     0.00000
             63  HE 1 ZZX     0.00000     0.00000
             64  HE 1 ZZY     0.00000     0.00000
             65  HE 1 XYZ     0.00000     0.00000
             66  HE 1 XXX     0.00000     0.00000
             67  HE 1 YYY     0.00000     0.00000
             68  HE 1 ZZZ     0.00000     0.00000
             69  HE 1 XXY     0.00000     0.00000
             70  HE 1 XXZ     0.00000     0.00000
             71  HE 1 YYX     0.00000     0.00000
             72  HE 1 YYZ     0.00000     0.00000
             73  HE 1 ZZX     0.00000     0.00000
             74  HE 1 ZZY     0.00000     0.00000
             75  HE 1 XYZ     0.00000     0.00000
             76  HE 1 XXX     0.00000     0.00000
             77  HE 1 YYY     0.00000     0.00000
             78  HE 1 ZZZ     0.00000     0.00000
             79  HE 1 XXY     0.00000     0.00000
             80  HE 1 XXZ     0.00000     0.00000
             81  HE 1 YYX     0.00000     0.00000
             82  HE 1 YYZ     0.00000     0.00000
             83  HE 1 ZZX     0.00000     0.00000
             84  HE 1 ZZY     0.00000     0.00000
             85  HE 1 XYZ     0.00000     0.00000
             86  HE 1 XXX     0.00000     0.00000
             87  HE 1 YYY     0.00000     0.00000
             88  HE 1 ZZZ     0.00000     0.00000
             89  HE 1 XXY     0.00000     0.00000
             90  HE 1 XXZ     0.00000     0.00000
             91  HE 1 YYX     0.00000     0.00000
             92  HE 1 YYZ     0.00000     0.00000
             93  HE 1 ZZX     0.00000     0.00000
             94  HE 1 ZZY     0.00000     0.00000
             95  HE 1 XYZ     0.00000     0.00000
             96  HE 1XXXX     0.00000     0.02466
             97  HE 1YYYY     0.00000     0.02466
             98  HE 1ZZZZ     0.00000     0.02466
             99  HE 1XXXY     0.00000     0.00000
            100  HE 1XXXZ     0.00000     0.00000
            101  HE 1YYYX     0.00000     0.00000
            102  HE 1YYYZ     0.00000     0.00000
            103  HE 1ZZZX     0.00000     0.00000
            104  HE 1ZZZY     0.00000     0.00000
            105  HE 1XXYY     0.00000     0.02743
            106  HE 1XXZZ     0.00000     0.02743
            107  HE 1YYZZ     0.00000     0.02743
            108  HE 1XXYZ     0.00000     0.00000
            109  HE 1YYXZ     0.00000     0.00000
            110  HE 1ZZXY     0.00000     0.00000
            111  HE 1XXXX     0.00000     0.03470
            112  HE 1YYYY     0.00000     0.03470
            113  HE 1ZZZZ     0.00000     0.03470
            114  HE 1XXXY     0.00000     0.00000
            115  HE 1XXXZ     0.00000     0.00000
            116  HE 1YYYX     0.00000     0.00000
            117  HE 1YYYZ     0.00000     0.00000
            118  HE 1ZZZX     0.00000     0.00000
            119  HE 1ZZZY     0.00000     0.00000
            120  HE 1XXYY     0.00000     0.03707
            121  HE 1XXZZ     0.00000     0.03707
            122  HE 1YYZZ     0.00000     0.03707
            123  HE 1XXYZ     0.00000     0.00000
            124  HE 1YYXZ     0.00000     0.00000
            125  HE 1ZZXY     0.00000     0.00000
            126  HE 1XXXX     0.00000     0.01801
            127  HE 1YYYY     0.00000     0.01801
            128  HE 1ZZZZ     0.00000     0.01801
            129  HE 1XXXY     0.00000     0.00000
            130  HE 1XXXZ     0.00000     0.00000
            131  HE 1YYYX     0.00000     0.00000
            132  HE 1YYYZ     0.00000     0.00000
            133  HE 1ZZZX     0.00000     0.00000
            134  HE 1ZZZY     0.00000     0.00000
            135  HE 1XXYY     0.00000     0.01919
            136  HE 1XXZZ     0.00000     0.01919
            137  HE 1YYZZ     0.00000     0.01919
            138  HE 1XXYZ     0.00000     0.00000
            139  HE 1YYXZ     0.00000     0.00000
            140  HE 1ZZXY     0.00000     0.00000
            141  HE XXXXX     0.00000     0.00000
            142  HE YYYYY     0.00000     0.00000
            143  HE ZZZZZ     0.00000     0.00000
            144  HE XXXXY     0.00000     0.00000
            145  HE XXXXZ     0.00000     0.00000
            146  HE YYYYX     0.00000     0.00000
            147  HE YYYYZ     0.00000     0.00000
            148  HE ZZZZX     0.00000     0.00000
            149  HE ZZZZY     0.00000     0.00000
            150  HE XXXYY     0.00000     0.00000
            151  HE XXXZZ     0.00000     0.00000
            152  HE YYYXX     0.00000     0.00000
            153  HE YYYZZ     0.00000     0.00000
            154  HE ZZZXX     0.00000     0.00000
            155  HE ZZZYY     0.00000     0.00000
            156  HE XXXYZ     0.00000     0.00000
            157  HE YYYXZ     0.00000     0.00000
            158  HE ZZZXY     0.00000     0.00000
            159  HE XXYYZ     0.00000     0.00000
            160  HE XXZZY     0.00000     0.00000
            161  HE YYZZX     0.00000     0.00000
            162  HE XXXXX     0.00000     0.00000
            163  HE YYYYY     0.00000     0.00000
            164  HE ZZZZZ     0.00000     0.00000
            165  HE XXXXY     0.00000     0.00000
            166  HE XXXXZ     0.00000     0.00000
            167  HE YYYYX     0.00000     0.00000
            168  HE YYYYZ     0.00000     0.00000
            169  HE ZZZZX     0.00000     0.00000
            170  HE ZZZZY     0.00000     0.00000
            171  HE XXXYY     0.00000     0.00000
            172  HE XXXZZ     0.00000     0.00000
            173  HE YYYXX     0.00000     0.00000
            174  HE YYYZZ     0.00000     0.00000
            175  HE ZZZXX     0.00000     0.00000
            176  HE ZZZYY     0.00000     0.00000
            177  HE XXXYZ     0.00000     0.00000
            178  HE YYYXZ     0.00000     0.00000
            179  HE ZZZXY     0.00000     0.00000
            180  HE XXYYZ     0.00000     0.00000
            181  HE XXZZY     0.00000     0.00000
            182  HE YYZZX     0.00000     0.00000

          ----- MULLIKEN ATOMIC OVERLAP POPULATIONS -----
          (OFF-DIAGONAL ELEMENTS NEED TO BE MULTIPLIED BY 2)

             1

    1    2.0000000

          TOTAL MULLIKEN AND LOWDIN ATOMIC POPULATIONS
       ATOM         MULL.POP.    CHARGE          LOW.POP.     CHARGE
    1 HE            2.000000    0.000000         2.000000    0.000000

          MULLIKEN SPHERICAL HARMONIC POPULATIONS
       ATOM           S       P       D      F      G      H      I    TOTAL
    1 HE            2.00    0.00    0.00   0.00   0.00   0.00   0.00    2.00

          -------------------------------
          BOND ORDER AND VALENCE ANALYSIS     BOND ORDER THRESHOLD=0.050
          -------------------------------

                   BOND                       BOND                       BOND
  ATOM PAIR DIST  ORDER      ATOM PAIR DIST  ORDER      ATOM PAIR DIST  ORDER

                       TOTAL       BONDED        FREE
      ATOM            VALENCE     VALENCE     VALENCE
    1 HE               -0.000       0.000      -0.000

          ---------------------
          ELECTROSTATIC MOMENTS
          ---------------------

 POINT   1           X           Y           Z (BOHR)    CHARGE
                 0.000000    0.000000    0.000000        0.00 (A.U.)
         DX          DY          DZ         /D/  (DEBYE)
     0.000000    0.000000    0.000000    0.000000
 ...... END OF PROPERTY EVALUATION ......
 CPU     0: STEP CPU TIME=     0.04 TOTAL CPU TIME=         56.4 (      0.9 MIN)
 TOTAL WALL CLOCK TIME=         87.6 SECONDS, CPU UTILIZATION IS    64.38%
 DDI: Creating Array [0] - 2 x 0 = 0 words.

 COMPUTING THE NUCLEAR GRADIENT BY NUMERIC DIFFERENTIATION

 PRJGRD: EVERY DIAGONAL ELEMENT IS ZERO?        0.0000000000        0.0000000000        0.0000000000
 PROJECTION FINDS   0 TOTALLY SYMMETRIC MODES OUT OF 3N=     3
 SO     0 SINGLE POINT ENERGIES MUST BE COMPUTED TO GET A GRADIENT.

                         ----------------------
                         GRADIENT OF THE ENERGY
                         ----------------------

 UNITS ARE HARTREE/BOHR    E'X               E'Y               E'Z 
    1 HE               0.000000000       0.000000000       0.000000000

                   MAXIMUM GRADIENT =    0.000000000
                       RMS GRADIENT =    0.000000000
  $VIB   
          IVIB=   0 IATOM=   0 ICOORD=   0 E=       -2.8525553157
  0.000000000E+00 0.000000000E+00 0.000000000E+00
  0.000000000E+00 0.000000000E+00 0.000000000E+00

..... END OF SINGLE POINT GRADIENT .....
 CPU     0: STEP CPU TIME=     0.01 TOTAL CPU TIME=         56.4 (      0.9 MIN)
 TOTAL WALL CLOCK TIME=         87.6 SECONDS, CPU UTILIZATION IS    64.37%

 AN AIMPAC INPUT FILE IS BEING WRITTEN TO FILE   7

              1589985  WORDS OF DYNAMIC MEMORY USED
 EXECUTION OF GAMESS TERMINATED NORMALLY 14:24:13 15-JUL-2021    
 DDI: 263640 bytes (0.3 MB / 0 MWords) used by master data server.
Note: The following floating-point exceptions are signalling: IEEE_UNDERFLOW_FLAG IEEE_DENORMAL

 ----------------------------------------
 CPU timing information for all processes
 ========================================
 0: 56.237 + 0.171 = 56.409
 1: 56.733 + 0.84 = 56.818
 2: 61.832 + 0.95 = 61.928
 3: 67.347 + 0.73 = 67.421
 ----------------------------------------
Note: The following floating-point exceptions are signalling: IEEE_UNDERFLOW_FLAG IEEE_DENORMAL
Note: The following floating-point exceptions are signalling: IEEE_UNDERFLOW_FLAG IEEE_DENORMAL
Note: The following floating-point exceptions are signalling: IEEE_UNDERFLOW_FLAG IEEE_DENORMAL
 ddikick.x: exited gracefully.
unset echo
----- accounting info -----
Files used on the master node n079 were:
-rw-r--r-- 1 dzaripov g0130  386073 Jul 15 14:24 /s/ls4/users/dzaripov/scratch/GAMESS_AM05_ACC6m_DIIS_He.dat
-rw-r--r-- 1 dzaripov g0130     385 Jul 15 14:22 /s/ls4/users/dzaripov/scratch/GAMESS_AM05_ACC6m_DIIS_He.F05
-rw-r--r-- 1 dzaripov g0130 5267920 Jul 15 14:24 /s/ls4/users/dzaripov/scratch/GAMESS_AM05_ACC6m_DIIS_He.F10
-rw-r--r-- 1 dzaripov g0130 8226656 Jul 15 14:22 /s/ls4/users/dzaripov/scratch/GAMESS_AM05_ACC6m_DIIS_He.F22
-rw-r--r-- 1 dzaripov g0130 8226656 Jul 15 14:22 /s/ls4/users/dzaripov/scratch/GAMESS_AM05_ACC6m_DIIS_He.F22.001
-rw-r--r-- 1 dzaripov g0130 8226656 Jul 15 14:22 /s/ls4/users/dzaripov/scratch/GAMESS_AM05_ACC6m_DIIS_He.F22.002
-rw-r--r-- 1 dzaripov g0130 8226656 Jul 15 14:22 /s/ls4/users/dzaripov/scratch/GAMESS_AM05_ACC6m_DIIS_He.F22.003
ls: No match.
ls: No match.
ls: No match.
Thu Jul 15 14:24:17 MSK 2021
0.829u 0.184s 1:32.29 1.0%	0+0k 0+16io 0pf+0w
