----- GAMESS execution script 'rungms' -----
This job is running on host n146
under operating system Linux at Mon Nov 15 20:55:51 MSK 2021
Available scratch disk space (Kbyte units) at beginning of the job is
Filesystem              1K-blocks         Used   Available Use% Mounted on
172.19.133.1@o2ib:172.19.133.2@o2ib:/hpc4
                     616206369600 495845328648 89286074924  85% /s/ls4
GAMESS temporary binary files will be written to /s/ls4/users/dzaripov/scratch
GAMESS supplementary output files will be written to /s/ls4/users/dzaripov/scratch
Copying input file /s/ls4/users/dzaripov/HelFey/GAMESS_Bq/GAMESS_AM05_ACC6m_DIIS_HeHeBq_2.000.inp to your run's scratch directory...
cp /s/ls4/users/dzaripov/HelFey/GAMESS_Bq/GAMESS_AM05_ACC6m_DIIS_HeHeBq_2.000.inp /s/ls4/users/dzaripov/scratch/GAMESS_AM05_ACC6m_DIIS_HeHeBq_2.000.F05
unset echo
 
Assuming a single but multicore node.
 
/s/ls4/users/dzaripov/prog/GAMESS-US/GAMESS_R2SCAN/ddikick.x /s/ls4/users/dzaripov/prog/GAMESS-US/GAMESS_R2SCAN/gamess.00.x GAMESS_AM05_ACC6m_DIIS_HeHeBq_2.000 -ddi 1 4 n146:cpus=4 -scr /s/ls4/users/dzaripov/scratch

 Distributed Data Interface kickoff program.
 Initiating 4 compute processes on 1 nodes to run the following command:
 /s/ls4/users/dzaripov/prog/GAMESS-US/GAMESS_R2SCAN/gamess.00.x GAMESS_AM05_ACC6m_DIIS_HeHeBq_2.000 

          *******************************************************
          *                                                     *
          *          GAMESS VERSION = 30 SEP 2020 (R2)          *
          *                                                     *
          *              doi.org/10.1063/5.0005188              *
          *                                                     *
          **************** 64 BIT LINUX VERSION *****************

  GAMESS HAS BEEN MADE POSSIBLE WITH IMPORTANT CONTRIBUTIONS FROM
  THE FOLLOWING INDIVIDUALS (IN ALPHABETICAL ORDER):

     IVANA ADAMOVIC, CHRISTINE AIKENS, TOMOKO AKAMA,
     YURI ALEXEEV, YURIKO AOKI, POOJA ARORA, TOSHIO ASADA,
     ANDREY ASADCHEV, KIM K. BALDRIDGE, PRADIPTA BANDYOPADHYAY,
     MARIA BARYSZ, ROB BELL, JONATHAN BENTZ, COLLEEN BERTONI,
     JERRY A. BOATZ, BRETT BODE, KURT BRORSEN, KURT R. BRORSEN,
     LAIMUTIS BYTAUTAS, CALEB CARLIN, LAURA CARRINGTON,
     GALINA CHABAN, BENOIT CHAMPAGNE, WEI CHEN, MAHITO CHIBA,
     DAN CHIPMAN, CHEOL HO CHOI, TANNER CULPITT,
     DIPAYAN DATTA, PAUL DAY, ALBERT DEFUSCO,
     NUWAN DESILVA, J. EMILIANO DEUSTUA,
     TIM DUDLEY, MICHEL DUPUIS, STEVEN T. ELBERT,
     DMITRI FEDOROV, ALEX FINDLATER, GRAHAM FLETCHER,
     MARK FREITAG, CHRISTIAN FRIEDL, DAVID GARMER,
     IGOR S. GERASIMOV, KURT GLAESEMANN, MARK S. GORDON,
     JEFFREY GOUR, FENG LONG GU, EMILIE B. GUIDEZ,
     ANASTASIA GUNINA, SHARON HAMMES-SCHIFFER, MASATAKE HARUTA,
     KIMIHIKO HIRAO, YASUHIRO IKABATA, TZVETELIN IORDANOV,
     STEPHAN IRLE, KAZUYA ISHIMURA, JOE IVANIC, FRANK JENSEN,
     JAN H. JENSEN, VISVALDAS KAIRYS, MUNEAKI KAMIYA,
     MICHIO KATOUDA, NAOAKI KAWAKAMI, DAN KEMP, BERNARD KIRTMAN,
     KAZUO KITAURA, MARIUSZ KLOBUKOWSKI, MASATO KOBAYASHI,
     PRAKASHAN KORAMBATH, JACEK KORCHOWIEC, SHIRO KOSEKI,
     KAROL KOWALSKI, JIMMY KROMANN, STANISLAW KUCHARSKI,
     HENRY KURTZ, SAROM SOK LEANG, HUI LI, SHUHUA LI, WEI LI,
     JESSE LUTZ, ALEKSANDR O. LYKHIN, MARCIN MAKOWSKI,
     JOANI MATO, NIKITA MATSUNAGA, BENEDETTA MENNUCCI,
     GRANT MERRILL, NORIYUKI MINEZAWA, VLADIMIR MIRONOV,
     EISAKU MIYOSHI, JOHN A. MONTGOMERY JR., HIROTOSHI MORI,
     JONATHAN MULLIN, MONIKA MUSIAL, SHIGERU NAGASE,
     TAKESHI NAGATA, HIROMI NAKAI, TAKAHITO NAKAJIMA,
     YUYA NAKAJIMA, HARUYUKI NAKANO, HIROYA NAKATA, SEAN NEDD,
     HEATHER NETZLOFF, KIET A. NGUYEN, YOSHIO NISHIMOTO,
     BOSILJKA NJEGIC, RYAN OLSON, MIKE PAK, ROBERTO PEVERATI,
     BUU PHAM, PIOTR PIECUCH, ANNA POMOGAEVA, DAVID POOLE,
     SPENCER PRUITT, OLIVIER QUINET, LUKE ROSKOP,
     KLAUS RUEDENBERG, ANDREW SAND, TOSAPORN SATTASATHUCHANA,
     NOZOMI SAWADA, MICHAEL W. SCHMIDT, PATRICK E. SCHNEIDER,
     JUNJI SEINO, PRACHI SHARMA, JUN SHEN, JIM SHOEMAKER,
     YINAN SHU, DEJUN SI, JONATHAN SKONE, LYUDMILA SLIPCHENKO,
     TONY SMITH, JIE SONG, MARK SPACKMAN, CASPER STEINMANN,
     WALT STEVENS, PEIFENG SU, SHUJUN SU, CHET SWALINA,
     TETSUYA TAKETSUGU, ZHEN TAO, NANDUN THELLAMUREGE
     SEIKEN TOKURA, JACOPO TOMASI, TSUGUKI TOUMA, TAKAO TSUNEDA,
     HIROAKI UMEDA, JORGE LUIS GALVEZ VALLEJO, YALI WANG,
     SIMON WEBB, AARON WEST, THERESA L. WINDUS, MARTA WLOCH,
     PENG XU, KIYOSHI YAGI, SUSUMU YANAGISAWA, YANG YANG,
     SOOHAENG YOO, TAKESHI YOSHIKAWA, FEDERICO ZAHARIEV,
     TOBY ZENG

  WHO ARE SUPPORTED BY THEIR INSTITUTION/UNIVERSITY/COMPANY/GROUP
  (IN ALPHABETICAL ORDER):

     EP ANALYTICS, FACULTES UNIVERSITAIRES NOTRE-DAME DE LA PAIX,
     INSTITUTE FOR MOLECULAR SCIENCE, IOWA STATE UNIVERSITY,
     JACKSON STATE UNIVERSITY, JOHANNES KEPLER UNIVERSITY LINZ,
     KYUSHU UNIVERSITY, MICHIGAN STATE UNIVERSITY,
     MIE UNIVERSITY, MOSCOW STATE UNIVERSITY,
     N. COPERNICUS UNIVERSITY, NAGOYA UNIVERSITY,
     NANJING UNIVERSITY, NAT. INST. OF ADVANCED INDUSTRIAL
     SCIENCE AND TECHNOLOGY, NATIONAL INST. OF STANDARDS AND
     TECHNOLOGY, NESMEYANOV INSTITUTE OF ORGANOELEMENT COMPOUNDS
     OF RUSSIAN ACADEMY OF SCIENCES, OSAKA PREFECTURE UNIVERSITY,
     PENNSYLVANIA STATE UNIVERSITY, TOKYO INSTITUTE OF TECHNOLOGY,
     UNIVERSITY OF AARHUS, UNIVERSITY OF ALBERTA,
     UNIVERSITY OF CALIFORNIA AT SANTA BARBARA,
     UNIVERSITY OF COPENHAGEN, UNIVERSITY OF IOWA,
     UNIVERSITY OF MEMPHIS, UNIVERSITY OF MINNESOTA,
     UNIVERSITY OF NEBRASKA, UNIVERSITY OF NEW ENGLAND,
     UNIVERSITY OF NOTRE DAME, UNIVERSITY OF PISA,
     UNIVERSITY OF SILESIA, UNIVERSITY OF TOKYO,
     UNIVERSITY OF ZURICH, WASEDA UNIVERSITY, YALE UNIVERSITY

  GAMESS SOFTWARE MANAGEMENT TEAM FOR THIS RELEASE:
     MARK S. GORDON (TEAM LEAD),
     BRETT BODE (SENIOR ADVISOR),
     GIUSEPPE BARCA,
     COLLEEN BERTONI,
     KRISTOPHER KEIPERT (ADVISOR),
     SAROM S. LEANG (DEVELOPMENT LEAD),
     BUU PHAM,
     JORGE LUIS GALVEZ VALLEJO (WEBSITE ADMINISTRATOR),
     PENG XU


 PARALLEL VERSION RUNNING ON        4 PROCESSORS IN        1 NODES.

 EXECUTION OF GAMESS BEGUN 20:55:52 15-NOV-2021    

            ECHO OF THE FIRST FEW INPUT CARDS -
 INPUT CARD> $CONTRL DFTTYP=USELIBXC $END                                                   
 INPUT CARD> $LIBXC FUNCTIONAL=AM05 $END                                                    
 INPUT CARD> $SYSTEM MWORDS=500 MEMDDI=20 $END                                              
 INPUT CARD> $CONTRL MAXIT=200 SCFTYP=RHF RUNTYP=gradient NUMGRD=.T. ISPHER=1 UNITS=ANGS    
 INPUT CARD>  EXETYP=RUN COORD=UNIQUE ICHARG=0 MULT=1 AIMPAC=.T. $END                       
 INPUT CARD> $BASIS GBASIS=ACC6m EXTFIL=.T. $END                                            
 INPUT CARD> $SCF DIRSCF=.TRUE. DIIS=.T. $END                                               
 INPUT CARD> $DFT NRAD=999 NLEB=974 $END                                                    
 INPUT CARD> $DATA                                                                          
 INPUT CARD> ./GAMESS_AM05_ACC6m_DIIS_HeHeBq_2.000.inp                                      
 INPUT CARD>C1                                                                              
 INPUT CARD> He  2.0 0. 0. -1.000                                                           
 INPUT CARD> He -2.0 0. 0.  1.000                                                           
 INPUT CARD> $END                                                                           
  500000000 WORDS OF MEMORY AVAILABLE

     $BASIS REQUESTS READING THE "ACC6M   " BASIS SET FROM AN EXTERNAL FILE


     RUN TITLE
     ---------
  ./GAMESS_AM05_ACC6m_DIIS_HeHeBq_2.000.inp                                      

 THE POINT GROUP OF THE MOLECULE IS C1      
 THE ORDER OF THE PRINCIPAL AXIS IS     0

 THE EXTERNAL BASIS SET FILE BEING READ IS
     "/s/ls4/users/dzaripov/prog/GAMESS-US/GAMESSBAS/ACC6m"
 *** WARNING! ATOM   1 SHELL    1 TYPE S HAS NORMALIZATION  99.99965729
 *** WARNING! ATOM   2 SHELL   28 TYPE S HAS NORMALIZATION  99.99965729

 ATOM      ATOMIC                      COORDINATES (BOHR)
           CHARGE         X                   Y                   Z
 HE          2.0     0.0000000000        0.0000000000       -1.8897259877
 HE          0.0     0.0000000000        0.0000000000        1.8897259877

          INTERNUCLEAR DISTANCES (ANGS.)
          ------------------------------

                1 HE         2 HE    

   1 HE      0.0000000    2.0000000 *
   2 HE      2.0000000 *  0.0000000  

  * ... LESS THAN  3.000


     ATOMIC BASIS SET
     ----------------
 THE CONTRACTED PRIMITIVE FUNCTIONS HAVE BEEN UNNORMALIZED
 THE CONTRACTED BASIS FUNCTIONS ARE NOW NORMALIZED TO UNITY

  SHELL TYPE  PRIMITIVE        EXPONENT          CONTRACTION COEFFICIENT(S)

 HE        

      1   S       1          4785.0000000    0.000059999794
      1   S       2           717.0000000    0.000469998389
      1   S       3           163.2000000    0.002439991638
      1   S       4            46.2600000    0.010119965317
      1   S       5            15.1000000    0.034859880530
      1   S       6             5.4370000    0.098409662735
      1   S       7             2.0880000    0.216309258675
      1   S       8             0.8297000    0.349048803755
      1   S       9             0.3366000    0.346598812152
      1   S      10             0.1369000    0.115189605227

      2   S      11             5.4370000    1.000000000000

      3   S      12             2.0880000    1.000000000000

      4   S      13             0.8297000    1.000000000000

      5   S      14             0.3366000    1.000000000000

      6   S      15             0.1369000    1.000000000000

      7   S      16             0.0447300    1.000000000000

      8   P      17            16.1040000    1.000000000000

      9   P      18             6.3420000    1.000000000000

     10   P      19             2.4980000    1.000000000000

     11   P      20             0.9840000    1.000000000000

     12   P      21             0.3870000    1.000000000000

     13   P      22             0.1280000    1.000000000000

     14   D      23            12.4980000    1.000000000000

     15   D      24             4.8860000    1.000000000000

     16   D      25             1.9100000    1.000000000000

     17   D      26             0.7470000    1.000000000000

     18   D      27             0.2410000    1.000000000000

     19   F      28             9.2760000    1.000000000000

     20   F      29             3.4620000    1.000000000000

     21   F      30             1.2920000    1.000000000000

     22   F      31             0.4070000    1.000000000000

     23   G      32             6.5860000    1.000000000000

     24   G      33             2.2360000    1.000000000000

     25   G      34             0.6860000    1.000000000000

     26   H      35             4.1590000    1.000000000000

     27   H      36             1.0160000    1.000000000000

 HE        

     28   S      37          4785.0000000    0.000059999794
     28   S      38           717.0000000    0.000469998389
     28   S      39           163.2000000    0.002439991638
     28   S      40            46.2600000    0.010119965317
     28   S      41            15.1000000    0.034859880530
     28   S      42             5.4370000    0.098409662735
     28   S      43             2.0880000    0.216309258675
     28   S      44             0.8297000    0.349048803755
     28   S      45             0.3366000    0.346598812152
     28   S      46             0.1369000    0.115189605227

     29   S      47             5.4370000    1.000000000000

     30   S      48             2.0880000    1.000000000000

     31   S      49             0.8297000    1.000000000000

     32   S      50             0.3366000    1.000000000000

     33   S      51             0.1369000    1.000000000000

     34   S      52             0.0447300    1.000000000000

     35   P      53            16.1040000    1.000000000000

     36   P      54             6.3420000    1.000000000000

     37   P      55             2.4980000    1.000000000000

     38   P      56             0.9840000    1.000000000000

     39   P      57             0.3870000    1.000000000000

     40   P      58             0.1280000    1.000000000000

     41   D      59            12.4980000    1.000000000000

     42   D      60             4.8860000    1.000000000000

     43   D      61             1.9100000    1.000000000000

     44   D      62             0.7470000    1.000000000000

     45   D      63             0.2410000    1.000000000000

     46   F      64             9.2760000    1.000000000000

     47   F      65             3.4620000    1.000000000000

     48   F      66             1.2920000    1.000000000000

     49   F      67             0.4070000    1.000000000000

     50   G      68             6.5860000    1.000000000000

     51   G      69             2.2360000    1.000000000000

     52   G      70             0.6860000    1.000000000000

     53   H      71             4.1590000    1.000000000000

     54   H      72             1.0160000    1.000000000000

 TOTAL NUMBER OF BASIS SET SHELLS             =   54
 NUMBER OF CARTESIAN GAUSSIAN BASIS FUNCTIONS =  364
 NOTE: THIS RUN WILL RESTRICT THE MO VARIATION SPACE TO SPHERICAL HARMONICS.
 THE NUMBER OF ORBITALS KEPT IN THE VARIATIONAL SPACE WILL BE PRINTED LATER.
 NUMBER OF ELECTRONS                          =    2
 CHARGE OF MOLECULE                           =    0
 SPIN MULTIPLICITY                            =    1
 NUMBER OF OCCUPIED ORBITALS (ALPHA)          =    1
 NUMBER OF OCCUPIED ORBITALS (BETA )          =    1
 TOTAL NUMBER OF ATOMS                        =    2
 THE NUCLEAR REPULSION ENERGY IS        0.0000000000

 THIS MOLECULE IS RECOGNIZED AS BEING LINEAR,
 ORBITAL LZ DEGENERACY TOLERANCE ETOLLZ= 1.00E-06

 SELECTED MURRAY-HANDY-LAMING RADIAL GRID

 LEGACY BECKE'S FUZZY CELL METHOD

 SELECTED ORIGINAL BECKE'S PARTITION FUNCTION

     LEBEDEV GRID-BASED DFT OPTIONS
     ------------------------------
     DFTTYP=USELIBXC
     NRAD  =     999     NLEB  =     974
     NRAD0 =     249     NLEB0 =     110
     SWOFF =    5.00E-03 (PURE SCF -> DFT)
     SWITCH=    3.00E-04 (COARSE -> TIGHT GRID)
     THRESH=    0.00E+00 GTHRE=    1.00E+00
 
 The LibXC 5.1.4 version is used!
 
 THE FOLLOWING PAPERS SHOULD BE CITED WHEN USING LIBXC INTERFACE:
 S. Lehtola, C. Steigemann, M. J. Oliveira, and M. A. Marques, SoftwareX 7, 1 (2018)
 DOI: 10.1016/j.softx.2017.11.002
 and
 Igor S. Gerasimov, Federico Zahariev, Sarom S. Leang, Anton Tesliuk, Mark S. Gordon, Michael G. Medvedev,
 Introducing LibXC into GAMESS (US),
 Mendeleev Commun., 2021, 31, 302–305
 DOI: 10.1016/j.mencom.2021.05.008
 
 The information about selected functionals:
The Armiento & Mattsson 05 exchange functional will be used with a coefficient   1.00000000E+00.
The functional has been described in the following articles:
[1] R. Armiento and A. E. Mattsson, Phys. Rev. B 72, 085108 (2005); DOI: 10.1103/PhysRevB.72.085108
[2] A. E. Mattsson, R. Armiento, J. Paier, G. Kresse, J. M. Wills, and T. R. Mattsson, J. Chem. Phys. 128, 084714 (2008); DOI: 10.1063/1.2835596
The Armiento & Mattsson 05 correlation functional will be used with a coefficient   1.00000000E+00.
The functional has been described in the following articles:
[1] R. Armiento and A. E. Mattsson, Phys. Rev. B 72, 085108 (2005); DOI: 10.1103/PhysRevB.72.085108
[2] A. E. Mattsson, R. Armiento, J. Paier, G. Kresse, J. M. Wills, and T. R. Mattsson, J. Chem. Phys. 128, 084714 (2008); DOI: 10.1063/1.2835596
  
 The global hybrid part:                   0.0000000000000000     
  

 GRIMME'S EMPIRICAL DISPERSION CORRECTION= F

     $CONTRL OPTIONS
     ---------------
 SCFTYP=RHF          RUNTYP=GRADIENT     EXETYP=RUN     
 MPLEVL=       0     CITYP =NONE         CCTYP =NONE         VBTYP =NONE    
 DFTTYP=USELIBXC     TDDFT =NONE    
 MULT  =       1     ICHARG=       0     NZVAR =       0     COORD =UNIQUE  
 PP    =NONE         RELWFN=NONE         LOCAL =NONE         NUMGRD=       T
 ISPHER=       1     NOSYM =       0     MAXIT =     200     UNITS =ANGS    
 PLTORB=       F     MOLPLT=       F     AIMPAC=       T     FRIEND=        
 NPRINT=       7     IREST =       0     GEOM  =INPUT   
 NORMF =       0     NORMP =       0     ITOL  =      20     ICUT  =       9
 INTTYP=BEST         GRDTYP=BEST         QMTTOL= 1.0E-06

     $SYSTEM OPTIONS
     ---------------
  REPLICATED MEMORY=   500000000 WORDS (ON EVERY NODE).
 DISTRIBUTED MEMDDI=          20 MILLION WORDS IN AGGREGATE,
 MEMDDI DISTRIBUTED OVER   4 PROCESSORS IS     5000000 WORDS/PROCESSOR.
 TOTAL MEMORY REQUESTED ON EACH PROCESSOR=   505000000 WORDS.
 TIMLIM=      525600.00 MINUTES, OR     365.0 DAYS.
 PARALL= T  BALTYP=  DLB     KDIAG=    0  COREFL= F
 MXSEQ2=     300 MXSEQ3=     150  mem10=         0  mem22=         0

 Using Gaussians for PCM contribution to MEP, params: 0.10000E+01 0.10000E-07

          ----------------
          PROPERTIES INPUT
          ----------------

     MOMENTS            FIELD           POTENTIAL          DENSITY
 IEMOM =       1   IEFLD =       0   IEPOT =       0   IEDEN =       0
 WHERE =COMASS     WHERE =NUCLEI     WHERE =NUCLEI     WHERE =NUCLEI  
 OUTPUT=BOTH       OUTPUT=BOTH       OUTPUT=BOTH       OUTPUT=BOTH    
 IEMINT=       0   IEFINT=       0                     IEDINT=       0
                                                       MORB  =       0
          EXTRAPOLATION IN EFFECT
          DIIS IN EFFECT
 ORBITAL PRINTING OPTION: NPREO=     1   364     2     1

     -------------------------------
     INTEGRAL TRANSFORMATION OPTIONS
     -------------------------------
     NWORD  =            0
     CUTOFF = 1.0E-09     MPTRAN =       0
     DIRTRF =       T     AOINTS =DUP     

          ----------------------
          INTEGRAL INPUT OPTIONS
          ----------------------
 NOPK  =       1 NORDER=       0 SCHWRZ=       T

     ------------------------------------------
     THE POINT GROUP IS C1 , NAXIS= 0, ORDER= 1
     ------------------------------------------

 -- VARIATIONAL SPACE WILL BE RESTRICTED TO PURE SPHERICAL HARMONICS ONLY --
 AFTER EXCLUDING CONTAMINANT COMBINATIONS FROM THE CARTESIAN GAUSSIAN BASIS
 SET, THE NUMBER OF SPHERICAL HARMONICS KEPT IN THE VARIATION SPACE IS  254

     DIMENSIONS OF THE SYMMETRY SUBSPACES ARE
 A   =  254

 ..... DONE SETTING UP THE RUN .....
 CPU     0: STEP CPU TIME=     0.15 TOTAL CPU TIME=          0.2 (      0.0 MIN)
 TOTAL WALL CLOCK TIME=          0.4 SECONDS, CPU UTILIZATION IS    41.38%

                    --------------------------------
                    SINGLE POINT ENERGY AND GRADIENT
                    --------------------------------

          ********************
          1 ELECTRON INTEGRALS
          ********************
 ...... END OF ONE-ELECTRON INTEGRALS ......
 CPU     0: STEP CPU TIME=     0.02 TOTAL CPU TIME=          0.2 (      0.0 MIN)
 TOTAL WALL CLOCK TIME=          0.4 SECONDS, CPU UTILIZATION IS    39.11%

          -------------
          GUESS OPTIONS
          -------------
          GUESS =HUCKEL            NORB  =       0          NORDER=       0
          MIX   =       F          PRTMO =       F          PUNMO =       F
          TOLZ  = 1.0E-08          TOLE  = 1.0E-05
          SYMDEN=       F          PURIFY=       F

 INITIAL GUESS ORBITALS GENERATED BY HUCKEL   ROUTINE.
 HUCKEL GUESS REQUIRES    934213 WORDS.

 STATISTICS FOR GENERATION OF SYMMETRY ORBITAL -Q- MATRIX
 NUMBER OF CARTESIAN ATOMIC ORBITALS=        364
 NUMBER OF SPHERICAL CONTAMINANTS DROPPED=   110
 NUMBER OF LINEARLY DEPENDENT MOS DROPPED=     0
 TOTAL NUMBER OF MOS IN VARIATION SPACE=     254

 SYMMETRIES FOR INITIAL GUESS ORBITALS FOLLOW.   BOTH SET(S).
     1 ORBITALS ARE OCCUPIED (    0 CORE ORBITALS).
     1=A        2=A        3=A        4=A        5=A        6=A        7=A   
     8=A        9=A       10=A       11=A   
 ...... END OF INITIAL ORBITAL SELECTION ......
 CPU     0: STEP CPU TIME=     0.07 TOTAL CPU TIME=          0.2 (      0.0 MIN)
 TOTAL WALL CLOCK TIME=          0.6 SECONDS, CPU UTILIZATION IS    38.46%

                    ----------------------
                    AO INTEGRAL TECHNOLOGY
                    ----------------------
     S,P,L SHELL ROTATED AXIS INTEGRALS, REPROGRAMMED BY
        KAZUYA ISHIMURA (IMS) AND JOSE SIERRA (SYNSTAR).
     S,P,D,L SHELL ROTATED AXIS INTEGRALS PROGRAMMED BY
        KAZUYA ISHIMURA (INSTITUTE FOR MOLECULAR SCIENCE).
     S,P,D,F,G SHELL TO TOTAL QUARTET ANGULAR MOMENTUM SUM 5,
        ERIC PROGRAM BY GRAHAM FLETCHER (ELORET AND NASA ADVANCED
        SUPERCOMPUTING DIVISION, AMES RESEARCH CENTER).
     S,P,D,F,G,L SHELL GENERAL RYS QUADRATURE PROGRAMMED BY
        MICHEL DUPUIS (PACIFIC NORTHWEST NATIONAL LABORATORY).

          --------------------
          2 ELECTRON INTEGRALS
          --------------------

 DIRECT SCF METHOD SKIPS INTEGRAL STORAGE ON DISK.
 DIRECT TRANSFORMATION SKIPS AO INTEGRAL STORAGE ON DISK.
  ...... END OF TWO-ELECTRON INTEGRALS .....
 CPU     0: STEP CPU TIME=     0.01 TOTAL CPU TIME=          0.3 (      0.0 MIN)
 TOTAL WALL CLOCK TIME=          0.7 SECONDS, CPU UTILIZATION IS    34.44%

          --------------------------
          R-USELIBXC SCF CALCULATION
          --------------------------

     NUCLEAR ENERGY =         0.0000000000
     MAXIT =  200     NPUNCH=    2
     EXTRAP=T  DAMP=F  SHIFT=F  RSTRCT=F  DIIS=T  DEM=F  SOSCF=F
         DENSITY MATRIX CONVERGENCE THRESHOLD=  2.00E-05
     COARSE -> FINE DFT GRID SWITCH THRESHOLD=  3.00E-04 (SWITCH IN $DFT)
                   HF -> DFT SWITCH THRESHOLD=  5.00E-03 (SWOFF IN $DFT)
     MEMORY REQUIRED FOR RHF ITERS=   3269046 WORDS.

 DIRECT SCF CALCULATION, SCHWRZ=T   FDIFF=T,  DIRTHR=  0.00E+00 NITDIR=10
 SCHWARZ INEQUALITY OVERHEAD:     63564 INTEGRALS, T=        0.03

 DFT CODE IS SWITCHING FROM THE FINE GRID NRAD=999,  NLEB=  974
                      TO THE COARSE GRID NRAD0=249, NLEB0=  110

     EXCHANGE FUNCTIONAL   =LIBXC     
     CORRELATION FUNCTIONAL=LIBXC     
     DFT THRESHOLD         =.206E-08
     GRID CHANGE THRESHOLD =.300E-03
 FOR AN EULER-MACLAURIN QUADRATURE USING 999 RADIAL POINTS:
 SMALLEST GAUSSIAN PRIMITIVE EXPONENT=        0.0447300000 OF TYPE -S-
 ON ATOM NUMBER   1 HAS RADIAL NORMALIZATION=  1.000000
  LARGEST GAUSSIAN PRIMITIVE EXPONENT=     4785.0000000000 OF TYPE -S-
 ON ATOM NUMBER   1 HAS RADIAL NORMALIZATION=  1.000000
 DFT IS SWITCHED OFF, PERFORMING PURE SCF UNTIL SWOFF THRESHOLD IS REACHED.

                                                                                   NONZERO     BLOCKS
 ITER EX DEM     TOTAL ENERGY        E CHANGE  DENSITY CHANGE    DIIS ERROR      INTEGRALS    SKIPPED
          * * *   INITIATING DIIS PROCEDURE   * * *
   1  0  0       -2.8510339908    -2.8510339908   0.606751823   0.146579317      342080164     256893
   2  1  0       -2.8614536784    -0.0104196876   0.049968104   0.009191927      342481017     255696
   3  2  0       -2.8616666300    -0.0002129516   0.006633910   0.001092467      274431995     323121
   4  3  0       -2.8616732115    -0.0000065815   0.000221557   0.000077396      155085613     465087
 CONVERGED TO SWOFF, SO DFT CALCULATION IS NOW SWITCHED ON.
 DFT CODE IS SWITCHING BACK TO THE FINE GRID
          * * *   INITIATING DIIS PROCEDURE   * * *
   5  4  0       -2.8510785180     0.0105946935   0.075954460   0.018689204      139337639     520121
   6  5  0       -2.8524016129    -0.0013230948   0.036782179   0.008132294      199336264     414002
   7  6  0       -2.8525502516    -0.0001486388   0.005710166   0.001465097      116044794     514344
   8  7  0       -2.8525553603    -0.0000051087   0.000030237   0.000008412       62699092     634546
   9  8  0       -2.8525553605    -0.0000000002   0.000000055   0.000000032       11979070     894465
  10  9  0       -2.8525553605    -0.0000000000   0.000000001   0.000000001        1798133    1049058

          -----------------
          DENSITY CONVERGED
          -----------------
     TIME TO FORM FOCK OPERATORS=     204.2 SECONDS (      20.4 SEC/ITER)
     FOCK TIME ON FIRST ITERATION=       9.5, LAST ITERATION=      26.1
     TIME TO SOLVE SCF EQUATIONS=       0.6 SECONDS (       0.1 SEC/ITER)

 FINAL R-USELIBXC ENERGY IS       -2.8525553605 AFTER  10 ITERATIONS
 DFT EXCHANGE + CORRELATION ENERGY =        -0.9961312438
 TOTAL ELECTRON NUMBER             =         1.9999999958

 LZ VALUE ANALYSIS FOR THE MOS
 ----------------------------------------
 MO     1 (    1) HAS LZ(WEIGHT)= 0.00(100.0%) 
 MO     2 (    2) HAS LZ(WEIGHT)= 0.00(100.0%) 
 MO     3 (    3) HAS LZ(WEIGHT)= 0.00(100.0%) 
 MO     4 (    4) HAS LZ(WEIGHT)=-1.00( 50.0%)  1.00( 50.0%) 
 MO     5 (    4) HAS LZ(WEIGHT)=-1.00( 50.0%)  1.00( 50.0%) 
 MO     6 (    5) HAS LZ(WEIGHT)= 0.00(100.0%) 
 MO     7 (    6) HAS LZ(WEIGHT)= 0.00(100.0%) 
 MO     8 (    7) HAS LZ(WEIGHT)=-1.00( 50.0%)  1.00( 50.0%) 
 MO     9 (    7) HAS LZ(WEIGHT)=-1.00( 50.0%)  1.00( 50.0%) 
 MO    10 (    8) HAS LZ(WEIGHT)= 0.00(100.0%) 
 MO    11 (    9) HAS LZ(WEIGHT)= 0.00(100.0%) 
 MO    12 (   10) HAS LZ(WEIGHT)=-2.00( 50.0%)  2.00( 50.0%) 
 MO    13 (   10) HAS LZ(WEIGHT)=-2.00( 50.0%)  2.00( 50.0%) 
 MO    14 (   11) HAS LZ(WEIGHT)=-1.00( 50.0%)  1.00( 50.0%) 
 MO    15 (   11) HAS LZ(WEIGHT)=-1.00( 50.0%)  1.00( 50.0%) 
 MO    16 (   12) HAS LZ(WEIGHT)= 0.00(100.0%) 
 MO    17 (   13) HAS LZ(WEIGHT)=-2.00( 50.0%)  2.00( 50.0%) 
 MO    18 (   13) HAS LZ(WEIGHT)=-2.00( 50.0%)  2.00( 50.0%) 
 MO    19 (   14) HAS LZ(WEIGHT)=-1.00( 50.0%)  1.00( 50.0%) 
 MO    20 (   14) HAS LZ(WEIGHT)=-1.00( 50.0%)  1.00( 50.0%) 
 MO    21 (   15) HAS LZ(WEIGHT)= 0.00(100.0%) 
 MO    22 (   16) HAS LZ(WEIGHT)= 0.00(100.0%) 
 MO    23 (   17) HAS LZ(WEIGHT)=-1.00( 50.0%)  1.00( 50.0%) 
 MO    24 (   17) HAS LZ(WEIGHT)=-1.00( 50.0%)  1.00( 50.0%) 
 MO    25 (   18) HAS LZ(WEIGHT)= 0.00(100.0%) 
 MO    26 (   19) HAS LZ(WEIGHT)=-1.00( 50.0%)  1.00( 50.0%) 
 MO    27 (   19) HAS LZ(WEIGHT)=-1.00( 50.0%)  1.00( 50.0%) 
 MO    28 (   20) HAS LZ(WEIGHT)= 0.00(100.0%) 
 MO    29 (   21) HAS LZ(WEIGHT)= 0.00(100.0%) 
 MO    30 (   22) HAS LZ(WEIGHT)=-2.00( 50.0%)  2.00( 50.0%) 
 MO    31 (   22) HAS LZ(WEIGHT)=-2.00( 50.0%)  2.00( 50.0%) 
 MO    32 (   23) HAS LZ(WEIGHT)=-3.00( 50.0%)  3.00( 50.0%) 
 MO    33 (   23) HAS LZ(WEIGHT)=-3.00( 50.0%)  3.00( 50.0%) 
 MO    34 (   24) HAS LZ(WEIGHT)=-1.00( 50.0%)  1.00( 50.0%) 
 MO    35 (   24) HAS LZ(WEIGHT)=-1.00( 50.0%)  1.00( 50.0%) 
 MO    36 (   25) HAS LZ(WEIGHT)=-3.00( 50.0%)  3.00( 50.0%) 
 MO    37 (   25) HAS LZ(WEIGHT)=-3.00( 50.0%)  3.00( 50.0%) 
 MO    38 (   26) HAS LZ(WEIGHT)= 0.00(100.0%) 
 MO    39 (   27) HAS LZ(WEIGHT)=-2.00( 50.0%)  2.00( 50.0%) 
 MO    40 (   27) HAS LZ(WEIGHT)=-2.00( 50.0%)  2.00( 50.0%) 
 MO    41 (   28) HAS LZ(WEIGHT)= 0.00(100.0%) 
 MO    42 (   29) HAS LZ(WEIGHT)=-1.00( 50.0%)  1.00( 50.0%) 
 MO    43 (   29) HAS LZ(WEIGHT)=-1.00( 50.0%)  1.00( 50.0%) 
 MO    44 (   30) HAS LZ(WEIGHT)= 0.00(100.0%) 
 MO    45 (   31) HAS LZ(WEIGHT)=-2.00( 50.0%)  2.00( 50.0%) 
 MO    46 (   31) HAS LZ(WEIGHT)=-2.00( 50.0%)  2.00( 50.0%) 
 MO    47 (   32) HAS LZ(WEIGHT)=-1.00( 50.0%)  1.00( 50.0%) 
 MO    48 (   32) HAS LZ(WEIGHT)=-1.00( 50.0%)  1.00( 50.0%) 
 MO    49 (   33) HAS LZ(WEIGHT)=-1.00( 50.0%)  1.00( 50.0%) 
 MO    50 (   33) HAS LZ(WEIGHT)=-1.00( 50.0%)  1.00( 50.0%) 
 MO    51 (   34) HAS LZ(WEIGHT)=-2.00( 50.0%)  2.00( 50.0%) 
 MO    52 (   34) HAS LZ(WEIGHT)=-2.00( 50.0%)  2.00( 50.0%) 
 MO    53 (   35) HAS LZ(WEIGHT)= 0.00(100.0%) 
 MO    54 (   36) HAS LZ(WEIGHT)=-1.00( 50.0%)  1.00( 50.0%) 
 MO    55 (   36) HAS LZ(WEIGHT)=-1.00( 50.0%)  1.00( 50.0%) 
 MO    56 (   37) HAS LZ(WEIGHT)= 0.00(100.0%) 
 MO    57 (   38) HAS LZ(WEIGHT)= 0.00(100.0%) 
 MO    58 (   39) HAS LZ(WEIGHT)=-2.00( 50.0%)  2.00( 50.0%) 
 MO    59 (   39) HAS LZ(WEIGHT)=-2.00( 50.0%)  2.00( 50.0%) 
 MO    60 (   40) HAS LZ(WEIGHT)=-3.00( 50.0%)  3.00( 50.0%) 
 MO    61 (   40) HAS LZ(WEIGHT)=-3.00( 50.0%)  3.00( 50.0%) 
 MO    62 (   41) HAS LZ(WEIGHT)=-1.00( 50.0%)  1.00( 50.0%) 
 MO    63 (   41) HAS LZ(WEIGHT)=-1.00( 50.0%)  1.00( 50.0%) 
 MO    64 (   42) HAS LZ(WEIGHT)=-4.00( 50.0%)  4.00( 50.0%) 
 MO    65 (   42) HAS LZ(WEIGHT)=-4.00( 50.0%)  4.00( 50.0%) 
 MO    66 (   43) HAS LZ(WEIGHT)=-4.00( 50.0%)  4.00( 50.0%) 
 MO    67 (   43) HAS LZ(WEIGHT)=-4.00( 50.0%)  4.00( 50.0%) 
 MO    68 (   44) HAS LZ(WEIGHT)=-1.00( 50.0%)  1.00( 50.0%) 
 MO    69 (   44) HAS LZ(WEIGHT)=-1.00( 50.0%)  1.00( 50.0%) 
 MO    70 (   45) HAS LZ(WEIGHT)=-3.00( 50.0%)  3.00( 50.0%) 
 MO    71 (   45) HAS LZ(WEIGHT)=-3.00( 50.0%)  3.00( 50.0%) 
 MO    72 (   46) HAS LZ(WEIGHT)= 0.00(100.0%) 
 MO    73 (   47) HAS LZ(WEIGHT)= 0.00(100.0%) 
 MO    74 (   48) HAS LZ(WEIGHT)=-2.00( 50.0%)  2.00( 50.0%) 
 MO    75 (   48) HAS LZ(WEIGHT)=-2.00( 50.0%)  2.00( 50.0%) 
 MO    76 (   49) HAS LZ(WEIGHT)= 0.00(100.0%) 
 MO    77 (   50) HAS LZ(WEIGHT)=-1.00( 50.0%)  1.00( 50.0%) 
 MO    78 (   50) HAS LZ(WEIGHT)=-1.00( 50.0%)  1.00( 50.0%) 
 MO    79 (   51) HAS LZ(WEIGHT)= 0.00(100.0%) 
 MO    80 (   52) HAS LZ(WEIGHT)=-3.00( 50.0%)  3.00( 50.0%) 
 MO    81 (   52) HAS LZ(WEIGHT)=-3.00( 50.0%)  3.00( 50.0%) 
 MO    82 (   53) HAS LZ(WEIGHT)=-2.00( 50.0%)  2.00( 50.0%) 
 MO    83 (   53) HAS LZ(WEIGHT)=-2.00( 50.0%)  2.00( 50.0%) 
 MO    84 (   54) HAS LZ(WEIGHT)=-1.00( 50.0%)  1.00( 50.0%) 
 MO    85 (   54) HAS LZ(WEIGHT)=-1.00( 50.0%)  1.00( 50.0%) 
 MO    86 (   55) HAS LZ(WEIGHT)= 0.00(100.0%) 
 MO    87 (   56) HAS LZ(WEIGHT)= 0.00(100.0%) 
 MO    88 (   57) HAS LZ(WEIGHT)=-2.00( 50.0%)  2.00( 50.0%) 
 MO    89 (   57) HAS LZ(WEIGHT)=-2.00( 50.0%)  2.00( 50.0%) 
 MO    90 (   58) HAS LZ(WEIGHT)=-3.00( 50.0%)  3.00( 50.0%) 
 MO    91 (   58) HAS LZ(WEIGHT)=-3.00( 50.0%)  3.00( 50.0%) 
 MO    92 (   59) HAS LZ(WEIGHT)=-3.00( 50.0%)  3.00( 50.0%) 
 MO    93 (   59) HAS LZ(WEIGHT)=-3.00( 50.0%)  3.00( 50.0%) 
 MO    94 (   60) HAS LZ(WEIGHT)=-2.00( 50.0%)  2.00( 50.0%) 
 MO    95 (   60) HAS LZ(WEIGHT)=-2.00( 50.0%)  2.00( 50.0%) 
 MO    96 (   61) HAS LZ(WEIGHT)=-1.00( 50.0%)  1.00( 50.0%) 
 MO    97 (   61) HAS LZ(WEIGHT)=-1.00( 50.0%)  1.00( 50.0%) 
 MO    98 (   62) HAS LZ(WEIGHT)=-4.00( 50.0%)  4.00( 50.0%) 
 MO    99 (   62) HAS LZ(WEIGHT)=-4.00( 50.0%)  4.00( 50.0%) 
 MO   100 (   63) HAS LZ(WEIGHT)=-5.00( 50.0%)  5.00( 50.0%) 
 MO   101 (   63) HAS LZ(WEIGHT)=-5.00( 50.0%)  5.00( 50.0%) 
 MO   102 (   64) HAS LZ(WEIGHT)=-5.00( 50.0%)  5.00( 50.0%) 
 MO   103 (   64) HAS LZ(WEIGHT)=-5.00( 50.0%)  5.00( 50.0%) 
 MO   104 (   65) HAS LZ(WEIGHT)=-4.00( 50.0%)  4.00( 50.0%) 
 MO   105 (   65) HAS LZ(WEIGHT)=-4.00( 50.0%)  4.00( 50.0%) 
 MO   106 (   66) HAS LZ(WEIGHT)=-1.00( 50.0%)  1.00( 50.0%) 
 MO   107 (   66) HAS LZ(WEIGHT)=-1.00( 50.0%)  1.00( 50.0%) 
 MO   108 (   67) HAS LZ(WEIGHT)= 0.00(100.0%) 
 MO   109 (   68) HAS LZ(WEIGHT)=-3.00( 50.0%)  3.00( 50.0%) 
 MO   110 (   68) HAS LZ(WEIGHT)=-3.00( 50.0%)  3.00( 50.0%) 
 MO   111 (   69) HAS LZ(WEIGHT)= 0.00(100.0%) 
 MO   112 (   70) HAS LZ(WEIGHT)=-1.00( 50.0%)  1.00( 50.0%) 
 MO   113 (   70) HAS LZ(WEIGHT)=-1.00( 50.0%)  1.00( 50.0%) 
 MO   114 (   71) HAS LZ(WEIGHT)= 0.00(100.0%) 
 MO   115 (   72) HAS LZ(WEIGHT)=-2.00( 50.0%)  2.00( 50.0%) 
 MO   116 (   72) HAS LZ(WEIGHT)=-2.00( 50.0%)  2.00( 50.0%) 
 MO   117 (   73) HAS LZ(WEIGHT)=-2.00( 50.0%)  2.00( 50.0%) 
 MO   118 (   73) HAS LZ(WEIGHT)=-2.00( 50.0%)  2.00( 50.0%) 
 MO   119 (   74) HAS LZ(WEIGHT)=-1.00( 50.0%)  1.00( 50.0%) 
 MO   120 (   74) HAS LZ(WEIGHT)=-1.00( 50.0%)  1.00( 50.0%) 
 MO   121 (   75) HAS LZ(WEIGHT)= 0.00(100.0%) 
 MO   122 (   76) HAS LZ(WEIGHT)=-1.00( 50.0%)  1.00( 50.0%) 
 MO   123 (   76) HAS LZ(WEIGHT)=-1.00( 50.0%)  1.00( 50.0%) 
 MO   124 (   77) HAS LZ(WEIGHT)=-2.00( 50.0%)  2.00( 50.0%) 
 MO   125 (   77) HAS LZ(WEIGHT)=-2.00( 50.0%)  2.00( 50.0%) 
 MO   126 (   78) HAS LZ(WEIGHT)= 0.00(100.0%) 
 MO   127 (   79) HAS LZ(WEIGHT)=-1.00( 50.0%)  1.00( 50.0%) 
 MO   128 (   79) HAS LZ(WEIGHT)=-1.00( 50.0%)  1.00( 50.0%) 
 MO   129 (   80) HAS LZ(WEIGHT)= 0.00(100.0%) 
 MO   130 (   81) HAS LZ(WEIGHT)=-1.00( 50.0%)  1.00( 50.0%) 
 MO   131 (   81) HAS LZ(WEIGHT)=-1.00( 50.0%)  1.00( 50.0%) 
 MO   132 (   82) HAS LZ(WEIGHT)= 0.00(100.0%) 
 MO   133 (   83) HAS LZ(WEIGHT)=-4.00( 50.0%)  4.00( 50.0%) 
 MO   134 (   83) HAS LZ(WEIGHT)=-4.00( 50.0%)  4.00( 50.0%) 
 MO   135 (   84) HAS LZ(WEIGHT)=-3.00( 50.0%)  3.00( 50.0%) 
 MO   136 (   84) HAS LZ(WEIGHT)=-3.00( 50.0%)  3.00( 50.0%) 
 MO   137 (   85) HAS LZ(WEIGHT)=-2.00( 50.0%)  2.00( 50.0%) 
 MO   138 (   85) HAS LZ(WEIGHT)=-2.00( 50.0%)  2.00( 50.0%) 
 MO   139 (   86) HAS LZ(WEIGHT)=-1.00( 50.0%)  1.00( 50.0%) 
 MO   140 (   86) HAS LZ(WEIGHT)=-1.00( 50.0%)  1.00( 50.0%) 
 MO   141 (   87) HAS LZ(WEIGHT)= 0.00(100.0%) 
 MO   142 (   88) HAS LZ(WEIGHT)=-4.00( 50.0%)  4.00( 50.0%) 
 MO   143 (   88) HAS LZ(WEIGHT)=-4.00( 50.0%)  4.00( 50.0%) 
 MO   144 (   89) HAS LZ(WEIGHT)=-3.00( 50.0%)  3.00( 50.0%) 
 MO   145 (   89) HAS LZ(WEIGHT)=-3.00( 50.0%)  3.00( 50.0%) 
 MO   146 (   90) HAS LZ(WEIGHT)=-2.00( 50.0%)  2.00( 50.0%) 
 MO   147 (   90) HAS LZ(WEIGHT)=-2.00( 50.0%)  2.00( 50.0%) 
 MO   148 (   91) HAS LZ(WEIGHT)= 0.00(100.0%) 
 MO   149 (   92) HAS LZ(WEIGHT)=-1.00( 50.0%)  1.00( 50.0%) 
 MO   150 (   92) HAS LZ(WEIGHT)=-1.00( 50.0%)  1.00( 50.0%) 
 MO   151 (   93) HAS LZ(WEIGHT)= 0.00(100.0%) 
 MO   152 (   94) HAS LZ(WEIGHT)=-3.00( 50.0%)  3.00( 50.0%) 
 MO   153 (   94) HAS LZ(WEIGHT)=-3.00( 50.0%)  3.00( 50.0%) 
 MO   154 (   95) HAS LZ(WEIGHT)=-2.00( 50.0%)  2.00( 50.0%) 
 MO   155 (   95) HAS LZ(WEIGHT)=-2.00( 50.0%)  2.00( 50.0%) 
 MO   156 (   96) HAS LZ(WEIGHT)=-1.00( 50.0%)  1.00( 50.0%) 
 MO   157 (   96) HAS LZ(WEIGHT)=-1.00( 50.0%)  1.00( 50.0%) 
 MO   158 (   97) HAS LZ(WEIGHT)= 0.00(100.0%) 
 MO   159 (   98) HAS LZ(WEIGHT)=-3.00( 50.0%)  3.00( 50.0%) 
 MO   160 (   98) HAS LZ(WEIGHT)=-3.00( 50.0%)  3.00( 50.0%) 
 MO   161 (   99) HAS LZ(WEIGHT)=-2.00( 50.0%)  2.00( 50.0%) 
 MO   162 (   99) HAS LZ(WEIGHT)=-2.00( 50.0%)  2.00( 50.0%) 
 MO   163 (  100) HAS LZ(WEIGHT)=-1.00( 50.0%)  1.00( 50.0%) 
 MO   164 (  100) HAS LZ(WEIGHT)=-1.00( 50.0%)  1.00( 50.0%) 
 MO   165 (  101) HAS LZ(WEIGHT)= 0.00(100.0%) 
 MO   166 (  102) HAS LZ(WEIGHT)= 0.00(100.0%) 
 MO   167 (  103) HAS LZ(WEIGHT)=-2.00( 50.0%)  2.00( 50.0%) 
 MO   168 (  103) HAS LZ(WEIGHT)=-2.00( 50.0%)  2.00( 50.0%) 
 MO   169 (  104) HAS LZ(WEIGHT)=-1.00( 50.0%)  1.00( 50.0%) 
 MO   170 (  104) HAS LZ(WEIGHT)=-1.00( 50.0%)  1.00( 50.0%) 
 MO   171 (  105) HAS LZ(WEIGHT)= 0.00(100.0%) 
 MO   172 (  106) HAS LZ(WEIGHT)=-1.00( 50.0%)  1.00( 50.0%) 
 MO   173 (  106) HAS LZ(WEIGHT)=-1.00( 50.0%)  1.00( 50.0%) 
 MO   174 (  107) HAS LZ(WEIGHT)= 0.00(100.0%) 
 MO   175 (  108) HAS LZ(WEIGHT)=-2.00( 50.0%)  2.00( 50.0%) 
 MO   176 (  108) HAS LZ(WEIGHT)=-2.00( 50.0%)  2.00( 50.0%) 
 MO   177 (  109) HAS LZ(WEIGHT)=-1.00( 50.0%)  1.00( 50.0%) 
 MO   178 (  109) HAS LZ(WEIGHT)=-1.00( 50.0%)  1.00( 50.0%) 
 MO   179 (  110) HAS LZ(WEIGHT)= 0.00(100.0%) 
 MO   180 (  111) HAS LZ(WEIGHT)=-1.00( 50.0%)  1.00( 50.0%) 
 MO   181 (  111) HAS LZ(WEIGHT)=-1.00( 50.0%)  1.00( 50.0%) 
 MO   182 (  112) HAS LZ(WEIGHT)= 0.00(100.0%) 
 MO   183 (  113) HAS LZ(WEIGHT)=-5.00( 50.0%)  5.00( 50.0%) 
 MO   184 (  113) HAS LZ(WEIGHT)=-5.00( 50.0%)  5.00( 50.0%) 
 MO   185 (  114) HAS LZ(WEIGHT)=-4.00( 50.0%)  4.00( 50.0%) 
 MO   186 (  114) HAS LZ(WEIGHT)=-4.00( 50.0%)  4.00( 50.0%) 
 MO   187 (  115) HAS LZ(WEIGHT)=-3.00( 50.0%)  3.00( 50.0%) 
 MO   188 (  115) HAS LZ(WEIGHT)=-3.00( 50.0%)  3.00( 50.0%) 
 MO   189 (  116) HAS LZ(WEIGHT)=-2.00( 50.0%)  2.00( 50.0%) 
 MO   190 (  116) HAS LZ(WEIGHT)=-2.00( 50.0%)  2.00( 50.0%) 
 MO   191 (  117) HAS LZ(WEIGHT)=-1.00( 50.0%)  1.00( 50.0%) 
 MO   192 (  117) HAS LZ(WEIGHT)=-1.00( 50.0%)  1.00( 50.0%) 
 MO   193 (  118) HAS LZ(WEIGHT)= 0.00(100.0%) 
 MO   194 (  119) HAS LZ(WEIGHT)=-4.00( 50.0%)  4.00( 50.0%) 
 MO   195 (  119) HAS LZ(WEIGHT)=-4.00( 50.0%)  4.00( 50.0%) 
 MO   196 (  120) HAS LZ(WEIGHT)=-5.00( 50.0%)  5.00( 50.0%) 
 MO   197 (  120) HAS LZ(WEIGHT)=-5.00( 50.0%)  5.00( 50.0%) 
 MO   198 (  121) HAS LZ(WEIGHT)=-3.00( 50.0%)  3.00( 50.0%) 
 MO   199 (  121) HAS LZ(WEIGHT)=-3.00( 50.0%)  3.00( 50.0%) 
 MO   200 (  122) HAS LZ(WEIGHT)=-2.00( 50.0%)  2.00( 50.0%) 
 MO   201 (  122) HAS LZ(WEIGHT)=-2.00( 50.0%)  2.00( 50.0%) 
 MO   202 (  123) HAS LZ(WEIGHT)= 0.00(100.0%) 
 MO   203 (  124) HAS LZ(WEIGHT)=-1.00( 50.0%)  1.00( 50.0%) 
 MO   204 (  124) HAS LZ(WEIGHT)=-1.00( 50.0%)  1.00( 50.0%) 
 MO   205 (  125) HAS LZ(WEIGHT)=-4.00( 50.0%)  4.00( 50.0%) 
 MO   206 (  125) HAS LZ(WEIGHT)=-4.00( 50.0%)  4.00( 50.0%) 
 MO   207 (  126) HAS LZ(WEIGHT)=-3.00( 50.0%)  3.00( 50.0%) 
 MO   208 (  126) HAS LZ(WEIGHT)=-3.00( 50.0%)  3.00( 50.0%) 
 MO   209 (  127) HAS LZ(WEIGHT)=-2.00( 50.0%)  2.00( 50.0%) 
 MO   210 (  127) HAS LZ(WEIGHT)=-2.00( 50.0%)  2.00( 50.0%) 
 MO   211 (  128) HAS LZ(WEIGHT)= 0.00(100.0%) 
 MO   212 (  129) HAS LZ(WEIGHT)=-1.00( 50.0%)  1.00( 50.0%) 
 MO   213 (  129) HAS LZ(WEIGHT)=-1.00( 50.0%)  1.00( 50.0%) 
 MO   214 (  130) HAS LZ(WEIGHT)=-4.00( 50.0%)  4.00( 50.0%) 
 MO   215 (  130) HAS LZ(WEIGHT)=-4.00( 50.0%)  4.00( 50.0%) 
 MO   216 (  131) HAS LZ(WEIGHT)=-3.00( 50.0%)  3.00( 50.0%) 
 MO   217 (  131) HAS LZ(WEIGHT)=-3.00( 50.0%)  3.00( 50.0%) 
 MO   218 (  132) HAS LZ(WEIGHT)=-2.00( 50.0%)  2.00( 50.0%) 
 MO   219 (  132) HAS LZ(WEIGHT)=-2.00( 50.0%)  2.00( 50.0%) 
 MO   220 (  133) HAS LZ(WEIGHT)= 0.00(100.0%) 
 MO   221 (  134) HAS LZ(WEIGHT)=-1.00( 50.0%)  1.00( 50.0%) 
 MO   222 (  134) HAS LZ(WEIGHT)=-1.00( 50.0%)  1.00( 50.0%) 
 MO   223 (  135) HAS LZ(WEIGHT)=-3.00( 50.0%)  3.00( 50.0%) 
 MO   224 (  135) HAS LZ(WEIGHT)=-3.00( 50.0%)  3.00( 50.0%) 
 MO   225 (  136) HAS LZ(WEIGHT)=-2.00( 50.0%)  2.00( 50.0%) 
 MO   226 (  136) HAS LZ(WEIGHT)=-2.00( 50.0%)  2.00( 50.0%) 
 MO   227 (  137) HAS LZ(WEIGHT)=-1.00( 50.0%)  1.00( 50.0%) 
 MO   228 (  137) HAS LZ(WEIGHT)=-1.00( 50.0%)  1.00( 50.0%) 
 MO   229 (  138) HAS LZ(WEIGHT)= 0.00(100.0%) 
 MO   230 (  139) HAS LZ(WEIGHT)=-3.00( 50.0%)  3.00( 50.0%) 
 MO   231 (  139) HAS LZ(WEIGHT)=-3.00( 50.0%)  3.00( 50.0%) 
 MO   232 (  140) HAS LZ(WEIGHT)=-2.00( 50.0%)  2.00( 50.0%) 
 MO   233 (  140) HAS LZ(WEIGHT)=-2.00( 50.0%)  2.00( 50.0%) 
 MO   234 (  141) HAS LZ(WEIGHT)=-1.00( 50.0%)  1.00( 50.0%) 
 MO   235 (  141) HAS LZ(WEIGHT)=-1.00( 50.0%)  1.00( 50.0%) 
 MO   236 (  142) HAS LZ(WEIGHT)= 0.00(100.0%) 
 MO   237 (  143) HAS LZ(WEIGHT)= 0.00(100.0%) 
 MO   238 (  144) HAS LZ(WEIGHT)=-2.00( 50.0%)  2.00( 50.0%) 
 MO   239 (  144) HAS LZ(WEIGHT)=-2.00( 50.0%)  2.00( 50.0%) 
 MO   240 (  145) HAS LZ(WEIGHT)=-1.00( 50.0%)  1.00( 50.0%) 
 MO   241 (  145) HAS LZ(WEIGHT)=-1.00( 50.0%)  1.00( 50.0%) 
 MO   242 (  146) HAS LZ(WEIGHT)= 0.00(100.0%) 
 MO   243 (  147) HAS LZ(WEIGHT)=-1.00( 50.0%)  1.00( 50.0%) 
 MO   244 (  147) HAS LZ(WEIGHT)=-1.00( 50.0%)  1.00( 50.0%) 
 MO   245 (  148) HAS LZ(WEIGHT)= 0.00(100.0%) 
 MO   246 (  149) HAS LZ(WEIGHT)=-2.00( 50.0%)  2.00( 50.0%) 
 MO   247 (  149) HAS LZ(WEIGHT)=-2.00( 50.0%)  2.00( 50.0%) 
 MO   248 (  150) HAS LZ(WEIGHT)=-1.00( 50.0%)  1.00( 50.0%) 
 MO   249 (  150) HAS LZ(WEIGHT)=-1.00( 50.0%)  1.00( 50.0%) 
 MO   250 (  151) HAS LZ(WEIGHT)= 0.00(100.0%) 
 MO   251 (  152) HAS LZ(WEIGHT)=-1.00( 50.0%)  1.00( 50.0%) 
 MO   252 (  152) HAS LZ(WEIGHT)=-1.00( 50.0%)  1.00( 50.0%) 
 MO   253 (  153) HAS LZ(WEIGHT)= 0.00(100.0%) 
 MO   254 (  154) HAS LZ(WEIGHT)= 0.00(100.0%) 

          ------------
          EIGENVECTORS
          ------------

                      1          2          3          4          5
                   -0.5671     0.0336     0.0640     0.1665     0.1665
                     A          A          A          A          A   
    1  HE 1  S    1.003747  -0.185720  -0.096578  -0.000000  -0.000000
    2  HE 1  S    0.000698  -0.007063  -0.008925  -0.000000  -0.000000
    3  HE 1  S   -0.004358   0.017179   0.024886  -0.000000  -0.000000
    4  HE 1  S   -0.012822  -0.090409  -0.108877  -0.000000  -0.000000
    5  HE 1  S   -0.015194   0.147214   0.178444  -0.000000  -0.000000
    6  HE 1  S    0.031170  -0.485848  -0.388527  -0.000000  -0.000000
    7  HE 1  S    0.007390   0.768775   1.940281  -0.000000  -0.000000
    8  HE 1  X   -0.000000  -0.000000  -0.000000  -0.000001  -0.001587
    9  HE 1  Y   -0.000000  -0.000000  -0.000000  -0.001587   0.000001
   10  HE 1  Z   -0.000001   0.000038  -0.000024  -0.000000  -0.000000
   11  HE 1  X   -0.000000  -0.000000  -0.000000   0.000004   0.010318
   12  HE 1  Y   -0.000000  -0.000000  -0.000000   0.010318  -0.000004
   13  HE 1  Z    0.000005   0.000086  -0.000878  -0.000000  -0.000000
   14  HE 1  X   -0.000000  -0.000000  -0.000000  -0.000010  -0.024978
   15  HE 1  Y   -0.000000  -0.000000  -0.000000  -0.024978   0.000010
   16  HE 1  Z   -0.000017   0.000644   0.000100  -0.000000  -0.000000
   17  HE 1  X   -0.000000  -0.000000  -0.000000   0.000043   0.106718
   18  HE 1  Y   -0.000000  -0.000000  -0.000000   0.106718  -0.000043
   19  HE 1  Z    0.000063   0.000331  -0.012998  -0.000000  -0.000000
   20  HE 1  X   -0.000000  -0.000000  -0.000000  -0.000066  -0.165664
   21  HE 1  Y   -0.000000  -0.000000  -0.000000  -0.165664   0.000066
   22  HE 1  Z   -0.000160   0.013256  -0.005439  -0.000000  -0.000000
   23  HE 1  X   -0.000000  -0.000000  -0.000000   0.000373   0.932143
   24  HE 1  Y   -0.000000  -0.000000  -0.000000   0.932143  -0.000373
   25  HE 1  Z   -0.000196   0.021010   0.155038  -0.000000  -0.000000
   26  HE 1 XX   -0.000000  -0.000015  -0.000043  -0.000000  -0.000000
   27  HE 1 YY   -0.000000  -0.000015  -0.000043  -0.000000  -0.000000
   28  HE 1 ZZ    0.000001   0.000031   0.000085  -0.000000  -0.000000
   29  HE 1 XY   -0.000000  -0.000000  -0.000000  -0.000000  -0.000000
   30  HE 1 XZ   -0.000000  -0.000000  -0.000000  -0.000000  -0.000072
   31  HE 1 YZ   -0.000000  -0.000000  -0.000000  -0.000072   0.000000
   32  HE 1 XX    0.000002   0.000066   0.000201  -0.000000  -0.000000
   33  HE 1 YY    0.000002   0.000066   0.000201  -0.000000  -0.000000
   34  HE 1 ZZ   -0.000004  -0.000132  -0.000403  -0.000000  -0.000000
   35  HE 1 XY   -0.000000  -0.000000  -0.000000  -0.000000  -0.000000
   36  HE 1 XZ   -0.000000  -0.000000  -0.000000   0.000000   0.000337
   37  HE 1 YZ   -0.000000  -0.000000  -0.000000   0.000337  -0.000000
   38  HE 1 XX   -0.000007  -0.000190  -0.000688  -0.000000  -0.000000
   39  HE 1 YY   -0.000007  -0.000190  -0.000688  -0.000000  -0.000000
   40  HE 1 ZZ    0.000013   0.000379   0.001376  -0.000000  -0.000000
   41  HE 1 XY   -0.000000  -0.000000  -0.000000  -0.000000  -0.000000
   42  HE 1 XZ   -0.000000  -0.000000  -0.000000  -0.000000  -0.000977
   43  HE 1 YZ   -0.000000  -0.000000  -0.000000  -0.000977   0.000000
   44  HE 1 XX    0.000013   0.000298   0.002986  -0.000000  -0.000000
   45  HE 1 YY    0.000013   0.000298   0.002986  -0.000000  -0.000000
   46  HE 1 ZZ   -0.000025  -0.000595  -0.005971  -0.000000  -0.000000
   47  HE 1 XY   -0.000000  -0.000000  -0.000000  -0.000000  -0.000000
   48  HE 1 XZ   -0.000000  -0.000000  -0.000000   0.000001   0.002472
   49  HE 1 YZ   -0.000000  -0.000000  -0.000000   0.002472  -0.000001
   50  HE 1 XX    0.000059  -0.004478  -0.034399  -0.000000  -0.000000
   51  HE 1 YY    0.000059  -0.004478  -0.034399  -0.000000  -0.000000
   52  HE 1 ZZ   -0.000118   0.008956   0.068797  -0.000000  -0.000000
   53  HE 1 XY   -0.000000  -0.000000  -0.000000  -0.000000  -0.000000
   54  HE 1 XZ   -0.000000  -0.000000  -0.000000  -0.000002  -0.003805
   55  HE 1 YZ   -0.000000  -0.000000  -0.000000  -0.003805   0.000002
   56  HE 1 XXX  -0.000000  -0.000000  -0.000000   0.000000   0.000038
   57  HE 1 YYY  -0.000000  -0.000000  -0.000000   0.000038  -0.000000
   58  HE 1 ZZZ  -0.000000   0.000050  -0.000003  -0.000000  -0.000000
   59  HE 1 XXY  -0.000000  -0.000000  -0.000000   0.000017  -0.000000
   60  HE 1 XXZ   0.000000  -0.000033   0.000002  -0.000000  -0.000000
   61  HE 1 YYX  -0.000000  -0.000000  -0.000000   0.000000   0.000017
   62  HE 1 YYZ   0.000000  -0.000033   0.000002  -0.000000  -0.000000
   63  HE 1 ZZX  -0.000000  -0.000000  -0.000000  -0.000000  -0.000068
   64  HE 1 ZZY  -0.000000  -0.000000  -0.000000  -0.000068   0.000000
   65  HE 1 XYZ  -0.000000  -0.000000  -0.000000  -0.000000  -0.000000
   66  HE 1 XXX  -0.000000  -0.000000  -0.000000  -0.000000  -0.000184
   67  HE 1 YYY  -0.000000  -0.000000  -0.000000  -0.000184   0.000000
   68  HE 1 ZZZ   0.000002  -0.000236   0.000030  -0.000000  -0.000000
   69  HE 1 XXY  -0.000000  -0.000000  -0.000000  -0.000082   0.000000
   70  HE 1 XXZ  -0.000001   0.000159  -0.000020  -0.000000  -0.000000
   71  HE 1 YYX  -0.000000  -0.000000  -0.000000  -0.000000  -0.000082
   72  HE 1 YYZ  -0.000001   0.000159  -0.000020  -0.000000  -0.000000
   73  HE 1 ZZX  -0.000000  -0.000000  -0.000000   0.000000   0.000330
   74  HE 1 ZZY  -0.000000  -0.000000  -0.000000   0.000330  -0.000000
   75  HE 1 XYZ  -0.000000  -0.000000  -0.000000  -0.000000  -0.000000
   76  HE 1 XXX  -0.000000  -0.000000  -0.000000   0.000000   0.000692
   77  HE 1 YYY  -0.000000  -0.000000  -0.000000   0.000692  -0.000000
   78  HE 1 ZZZ  -0.000003   0.000838  -0.000412  -0.000000  -0.000000
   79  HE 1 XXY  -0.000000  -0.000000  -0.000000   0.000310  -0.000000
   80  HE 1 XXZ   0.000002  -0.000562   0.000276  -0.000000  -0.000000
   81  HE 1 YYX  -0.000000  -0.000000  -0.000000   0.000000   0.000310
   82  HE 1 YYZ   0.000002  -0.000562   0.000276  -0.000000  -0.000000
   83  HE 1 ZZX  -0.000000  -0.000000  -0.000000  -0.000000  -0.001238
   84  HE 1 ZZY  -0.000000  -0.000000  -0.000000  -0.001238   0.000000
   85  HE 1 XYZ  -0.000000  -0.000000  -0.000000  -0.000000  -0.000000
   86  HE 1 XXX  -0.000000  -0.000000  -0.000000  -0.000001  -0.003428
   87  HE 1 YYY  -0.000000  -0.000000  -0.000000  -0.003428   0.000001
   88  HE 1 ZZZ  -0.000031  -0.002581   0.009919  -0.000000  -0.000000
   89  HE 1 XXY  -0.000000  -0.000000  -0.000000  -0.001533   0.000001
   90  HE 1 XXZ   0.000021   0.001731  -0.006654  -0.000000  -0.000000
   91  HE 1 YYX  -0.000000  -0.000000  -0.000000  -0.000001  -0.001533
   92  HE 1 YYZ   0.000021   0.001731  -0.006654  -0.000000  -0.000000
   93  HE 1 ZZX  -0.000000  -0.000000  -0.000000   0.000002   0.006133
   94  HE 1 ZZY  -0.000000  -0.000000  -0.000000   0.006133  -0.000002
   95  HE 1 XYZ  -0.000000  -0.000000  -0.000000  -0.000000  -0.000000
   96  HE 1XXXX  -0.000000  -0.000025   0.000012  -0.000000  -0.000000
   97  HE 1YYYY  -0.000000  -0.000025   0.000012  -0.000000  -0.000000
   98  HE 1ZZZZ  -0.000000  -0.000066   0.000033  -0.000000  -0.000000
   99  HE 1XXXY  -0.000000  -0.000000  -0.000000  -0.000000  -0.000000
  100  HE 1XXXZ  -0.000000  -0.000000  -0.000000  -0.000000  -0.000121
  101  HE 1YYYX  -0.000000  -0.000000  -0.000000  -0.000000  -0.000000
  102  HE 1YYYZ  -0.000000  -0.000000  -0.000000  -0.000121   0.000000
  103  HE 1ZZZX  -0.000000  -0.000000  -0.000000   0.000000   0.000162
  104  HE 1ZZZY  -0.000000  -0.000000  -0.000000   0.000162  -0.000000
  105  HE 1XXYY  -0.000000  -0.000014   0.000007  -0.000000  -0.000000
  106  HE 1XXZZ   0.000000   0.000058  -0.000029  -0.000000  -0.000000
  107  HE 1YYZZ   0.000000   0.000058  -0.000029  -0.000000  -0.000000
  108  HE 1XXYZ  -0.000000  -0.000000  -0.000000  -0.000054   0.000000
  109  HE 1YYXZ  -0.000000  -0.000000  -0.000000  -0.000000  -0.000054
  110  HE 1ZZXY  -0.000000  -0.000000  -0.000000  -0.000000  -0.000000
  111  HE 1XXXX   0.000000   0.000133  -0.000075  -0.000000  -0.000000
  112  HE 1YYYY   0.000000   0.000133  -0.000075  -0.000000  -0.000000
  113  HE 1ZZZZ   0.000001   0.000355  -0.000199  -0.000000  -0.000000
  114  HE 1XXXY  -0.000000  -0.000000  -0.000000  -0.000000  -0.000000
  115  HE 1XXXZ  -0.000000  -0.000000  -0.000000   0.000000   0.000661
  116  HE 1YYYX  -0.000000  -0.000000  -0.000000  -0.000000  -0.000000
  117  HE 1YYYZ  -0.000000  -0.000000  -0.000000   0.000661  -0.000000
  118  HE 1ZZZX  -0.000000  -0.000000  -0.000000  -0.000000  -0.000881
  119  HE 1ZZZY  -0.000000  -0.000000  -0.000000  -0.000881   0.000000
  120  HE 1XXYY   0.000000   0.000078  -0.000044  -0.000000  -0.000000
  121  HE 1XXZZ  -0.000001  -0.000312   0.000175  -0.000000  -0.000000
  122  HE 1YYZZ  -0.000001  -0.000312   0.000175  -0.000000  -0.000000
  123  HE 1XXYZ  -0.000000  -0.000000  -0.000000   0.000295  -0.000000
  124  HE 1YYXZ  -0.000000  -0.000000  -0.000000   0.000000   0.000295
  125  HE 1ZZXY  -0.000000  -0.000000  -0.000000  -0.000000  -0.000000
  126  HE 1XXXX  -0.000004  -0.000677   0.000706  -0.000000  -0.000000
  127  HE 1YYYY  -0.000004  -0.000677   0.000706  -0.000000  -0.000000
  128  HE 1ZZZZ  -0.000012  -0.001805   0.001883  -0.000000  -0.000000
  129  HE 1XXXY  -0.000000  -0.000000  -0.000000  -0.000000  -0.000000
  130  HE 1XXXZ  -0.000000  -0.000000  -0.000000  -0.000001  -0.003622
  131  HE 1YYYX  -0.000000  -0.000000  -0.000000  -0.000000  -0.000000
  132  HE 1YYYZ  -0.000000  -0.000000  -0.000000  -0.003622   0.000001
  133  HE 1ZZZX  -0.000000  -0.000000  -0.000000   0.000002   0.004829
  134  HE 1ZZZY  -0.000000  -0.000000  -0.000000   0.004829  -0.000002
  135  HE 1XXYY  -0.000003  -0.000396   0.000414  -0.000000  -0.000000
  136  HE 1XXZZ   0.000010   0.001586  -0.001654  -0.000000  -0.000000
  137  HE 1YYZZ   0.000010   0.001586  -0.001654  -0.000000  -0.000000
  138  HE 1XXYZ  -0.000000  -0.000000  -0.000000  -0.001620   0.000001
  139  HE 1YYXZ  -0.000000  -0.000000  -0.000000  -0.000001  -0.001620
  140  HE 1ZZXY  -0.000000  -0.000000  -0.000000  -0.000000  -0.000000
  141  HE XXXXX  -0.000000  -0.000000  -0.000000  -0.000000  -0.000050
  142  HE YYYYY  -0.000000  -0.000000  -0.000000  -0.000050   0.000000
  143  HE ZZZZZ   0.000000   0.000033  -0.000042  -0.000000  -0.000000
  144  HE XXXXY  -0.000000  -0.000000  -0.000000  -0.000017   0.000000
  145  HE XXXXZ   0.000000   0.000021  -0.000026  -0.000000  -0.000000
  146  HE YYYYX  -0.000000  -0.000000  -0.000000  -0.000000  -0.000017
  147  HE YYYYZ   0.000000   0.000021  -0.000026  -0.000000  -0.000000
  148  HE ZZZZX  -0.000000  -0.000000  -0.000000  -0.000000  -0.000133
  149  HE ZZZZY  -0.000000  -0.000000  -0.000000  -0.000133   0.000000
  150  HE XXXYY  -0.000000  -0.000000  -0.000000  -0.000000  -0.000022
  151  HE XXXZZ  -0.000000  -0.000000  -0.000000   0.000000   0.000131
  152  HE YYYXX  -0.000000  -0.000000  -0.000000  -0.000022   0.000000
  153  HE YYYZZ  -0.000000  -0.000000  -0.000000   0.000131  -0.000000
  154  HE ZZZXX  -0.000000  -0.000036   0.000046  -0.000000  -0.000000
  155  HE ZZZYY  -0.000000  -0.000036   0.000046  -0.000000  -0.000000
  156  HE XXXYZ  -0.000000  -0.000000  -0.000000  -0.000000  -0.000000
  157  HE YYYXZ  -0.000000  -0.000000  -0.000000  -0.000000  -0.000000
  158  HE ZZZXY  -0.000000  -0.000000  -0.000000  -0.000000  -0.000000
  159  HE XXYYZ   0.000000   0.000012  -0.000015  -0.000000  -0.000000
  160  HE XXZZY  -0.000000  -0.000000  -0.000000   0.000058  -0.000000
  161  HE YYZZX  -0.000000  -0.000000  -0.000000   0.000000   0.000058
  162  HE XXXXX  -0.000000  -0.000000  -0.000000   0.000000   0.000626
  163  HE YYYYY  -0.000000  -0.000000  -0.000000   0.000626  -0.000000
  164  HE ZZZZZ  -0.000006  -0.000403   0.000582  -0.000000  -0.000000
  165  HE XXXXY  -0.000000  -0.000000  -0.000000   0.000209  -0.000000
  166  HE XXXXZ  -0.000003  -0.000252   0.000364  -0.000000  -0.000000
  167  HE YYYYX  -0.000000  -0.000000  -0.000000   0.000000   0.000209
  168  HE YYYYZ  -0.000003  -0.000252   0.000364  -0.000000  -0.000000
  169  HE ZZZZX  -0.000000  -0.000000  -0.000000   0.000001   0.001669
  170  HE ZZZZY  -0.000000  -0.000000  -0.000000   0.001669  -0.000001
  171  HE XXXYY  -0.000000  -0.000000  -0.000000   0.000000   0.000273
  172  HE XXXZZ  -0.000000  -0.000000  -0.000000  -0.000001  -0.001639
  173  HE YYYXX  -0.000000  -0.000000  -0.000000   0.000273  -0.000000
  174  HE YYYZZ  -0.000000  -0.000000  -0.000000  -0.001639   0.000001
  175  HE ZZZXX   0.000006   0.000440  -0.000636  -0.000000  -0.000000
  176  HE ZZZYY   0.000006   0.000440  -0.000636  -0.000000  -0.000000
  177  HE XXXYZ  -0.000000  -0.000000  -0.000000  -0.000000  -0.000000
  178  HE YYYXZ  -0.000000  -0.000000  -0.000000  -0.000000  -0.000000
  179  HE ZZZXY  -0.000000  -0.000000  -0.000000  -0.000000  -0.000000
  180  HE XXYYZ  -0.000002  -0.000147   0.000213  -0.000000  -0.000000
  181  HE XXZZY  -0.000000  -0.000000  -0.000000  -0.000733   0.000000
  182  HE YYZZX  -0.000000  -0.000000  -0.000000  -0.000000  -0.000733
  183   B 2  S   -0.000000   0.012060  -0.008594  -0.000000  -0.000000
  184   B 2  S   -0.000001  -0.006397   0.004536  -0.000000  -0.000000
  185   B 2  S    0.000004   0.020207  -0.013985  -0.000000  -0.000000
  186   B 2  S    0.000067  -0.078881   0.050123  -0.000000  -0.000000
  187   B 2  S   -0.000335   0.195778  -0.077322  -0.000000  -0.000000
  188   B 2  S    0.000713  -0.417010   0.090528  -0.000000  -0.000000
  189   B 2  S   -0.000239   0.820581  -1.673036  -0.000000  -0.000000
  190   B 2  X   -0.000000  -0.000000  -0.000000  -0.000001  -0.001263
  191   B 2  Y   -0.000000  -0.000000  -0.000000  -0.001263   0.000001
  192   B 2  Z   -0.000001   0.000008  -0.000167  -0.000000  -0.000000
  193   B 2  X   -0.000000  -0.000000  -0.000000   0.000002   0.005936
  194   B 2  Y   -0.000000  -0.000000  -0.000000   0.005936  -0.000002
  195   B 2  Z    0.000007  -0.000032   0.000774  -0.000000  -0.000000
  196   B 2  X   -0.000000  -0.000000  -0.000000  -0.000008  -0.019572
  197   B 2  Y   -0.000000  -0.000000  -0.000000  -0.019572   0.000008
  198   B 2  Z   -0.000028   0.000017  -0.002454  -0.000000  -0.000000
  199   B 2  X   -0.000000  -0.000000  -0.000000   0.000023   0.056850
  200   B 2  Y   -0.000000  -0.000000  -0.000000   0.056850  -0.000023
  201   B 2  Z    0.000054   0.000829   0.006927  -0.000000  -0.000000
  202   B 2  X   -0.000000  -0.000000  -0.000000  -0.000056  -0.140440
  203   B 2  Y   -0.000000  -0.000000  -0.000000  -0.140440   0.000056
  204   B 2  Z   -0.000097  -0.006975  -0.029892  -0.000000  -0.000000
  205   B 2  X   -0.000000  -0.000000  -0.000000   0.000143   0.356706
  206   B 2  Y   -0.000000  -0.000000  -0.000000   0.356706  -0.000143
  207   B 2  Z   -0.000226   0.003712   0.319151  -0.000000  -0.000000
  208   B 2 XX    0.000001  -0.000016   0.000050  -0.000000  -0.000000
  209   B 2 YY    0.000001  -0.000016   0.000050  -0.000000  -0.000000
  210   B 2 ZZ   -0.000002   0.000032  -0.000099  -0.000000  -0.000000
  211   B 2 XY   -0.000000  -0.000000  -0.000000  -0.000000  -0.000000
  212   B 2 XZ   -0.000000  -0.000000  -0.000000   0.000000   0.000076
  213   B 2 YZ   -0.000000  -0.000000  -0.000000   0.000076  -0.000000
  214   B 2 XX   -0.000003   0.000070  -0.000233  -0.000000  -0.000000
  215   B 2 YY   -0.000003   0.000070  -0.000233  -0.000000  -0.000000
  216   B 2 ZZ    0.000007  -0.000141   0.000466  -0.000000  -0.000000
  217   B 2 XY   -0.000000  -0.000000  -0.000000  -0.000000  -0.000000
  218   B 2 XZ   -0.000000  -0.000000  -0.000000  -0.000000  -0.000349
  219   B 2 YZ   -0.000000  -0.000000  -0.000000  -0.000349   0.000000
  220   B 2 XX    0.000007  -0.000197   0.000879  -0.000000  -0.000000
  221   B 2 YY    0.000007  -0.000197   0.000879  -0.000000  -0.000000
  222   B 2 ZZ   -0.000015   0.000394  -0.001758  -0.000000  -0.000000
  223   B 2 XY   -0.000000  -0.000000  -0.000000  -0.000000  -0.000000
  224   B 2 XZ   -0.000000  -0.000000  -0.000000   0.000000   0.001221
  225   B 2 YZ   -0.000000  -0.000000  -0.000000   0.001221  -0.000000
  226   B 2 XX    0.000011   0.000297  -0.003750  -0.000000  -0.000000
  227   B 2 YY    0.000011   0.000297  -0.003750  -0.000000  -0.000000
  228   B 2 ZZ   -0.000022  -0.000594   0.007499  -0.000000  -0.000000
  229   B 2 XY   -0.000000  -0.000000  -0.000000  -0.000000  -0.000000
  230   B 2 XZ   -0.000000  -0.000000  -0.000000  -0.000002  -0.004144
  231   B 2 YZ   -0.000000  -0.000000  -0.000000  -0.004144   0.000002
  232   B 2 XX   -0.000094  -0.003575   0.033691  -0.000000  -0.000000
  233   B 2 YY   -0.000094  -0.003575   0.033691  -0.000000  -0.000000
  234   B 2 ZZ    0.000187   0.007151  -0.067383  -0.000000  -0.000000
  235   B 2 XY   -0.000000  -0.000000  -0.000000  -0.000000  -0.000000
  236   B 2 XZ   -0.000000  -0.000000  -0.000000   0.000012   0.030343
  237   B 2 YZ   -0.000000  -0.000000  -0.000000   0.030343  -0.000012
  238   B 2 XXX  -0.000000  -0.000000  -0.000000  -0.000000  -0.000083
  239   B 2 YYY  -0.000000  -0.000000  -0.000000  -0.000083   0.000000
  240   B 2 ZZZ   0.000001  -0.000050  -0.000119  -0.000000  -0.000000
  241   B 2 XXY  -0.000000  -0.000000  -0.000000  -0.000037   0.000000
  242   B 2 XXZ  -0.000000   0.000034   0.000080  -0.000000  -0.000000
  243   B 2 YYX  -0.000000  -0.000000  -0.000000  -0.000000  -0.000037
  244   B 2 YYZ  -0.000000   0.000034   0.000080  -0.000000  -0.000000
  245   B 2 ZZX  -0.000000  -0.000000  -0.000000   0.000000   0.000148
  246   B 2 ZZY  -0.000000  -0.000000  -0.000000   0.000148  -0.000000
  247   B 2 XYZ  -0.000000  -0.000000  -0.000000  -0.000000  -0.000000
  248   B 2 XXX  -0.000000  -0.000000  -0.000000   0.000000   0.000392
  249   B 2 YYY  -0.000000  -0.000000  -0.000000   0.000392  -0.000000
  250   B 2 ZZZ  -0.000004   0.000240   0.000579  -0.000000  -0.000000
  251   B 2 XXY  -0.000000  -0.000000  -0.000000   0.000175  -0.000000
  252   B 2 XXZ   0.000003  -0.000161  -0.000389  -0.000000  -0.000000
  253   B 2 YYX  -0.000000  -0.000000  -0.000000   0.000000   0.000175
  254   B 2 YYZ   0.000003  -0.000161  -0.000389  -0.000000  -0.000000
  255   B 2 ZZX  -0.000000  -0.000000  -0.000000  -0.000000  -0.000701
  256   B 2 ZZY  -0.000000  -0.000000  -0.000000  -0.000701   0.000000
  257   B 2 XYZ  -0.000000  -0.000000  -0.000000  -0.000000  -0.000000
  258   B 2 XXX  -0.000000  -0.000000  -0.000000  -0.000001  -0.001425
  259   B 2 YYY  -0.000000  -0.000000  -0.000000  -0.001425   0.000001
  260   B 2 ZZZ   0.000031  -0.000865  -0.002351  -0.000000  -0.000000
  261   B 2 XXY  -0.000000  -0.000000  -0.000000  -0.000637   0.000000
  262   B 2 XXZ  -0.000021   0.000580   0.001577  -0.000000  -0.000000
  263   B 2 YYX  -0.000000  -0.000000  -0.000000  -0.000000  -0.000637
  264   B 2 YYZ  -0.000021   0.000580   0.001577  -0.000000  -0.000000
  265   B 2 ZZX  -0.000000  -0.000000  -0.000000   0.000001   0.002550
  266   B 2 ZZY  -0.000000  -0.000000  -0.000000   0.002550  -0.000001
  267   B 2 XYZ  -0.000000  -0.000000  -0.000000  -0.000000  -0.000000
  268   B 2 XXX  -0.000000  -0.000000  -0.000000   0.000003   0.007527
  269   B 2 YYY  -0.000000  -0.000000  -0.000000   0.007527  -0.000003
  270   B 2 ZZZ  -0.000062   0.002836   0.016533  -0.000000  -0.000000
  271   B 2 XXY  -0.000000  -0.000000  -0.000000   0.003366  -0.000001
  272   B 2 XXZ   0.000042  -0.001902  -0.011091  -0.000000  -0.000000
  273   B 2 YYX  -0.000000  -0.000000  -0.000000   0.000001   0.003366
  274   B 2 YYZ   0.000042  -0.001902  -0.011091  -0.000000  -0.000000
  275   B 2 ZZX  -0.000000  -0.000000  -0.000000  -0.000005  -0.013465
  276   B 2 ZZY  -0.000000  -0.000000  -0.000000  -0.013465   0.000005
  277   B 2 XYZ  -0.000000  -0.000000  -0.000000  -0.000000  -0.000000
  278   B 2XXXX   0.000000  -0.000025  -0.000049  -0.000000  -0.000000
  279   B 2YYYY   0.000000  -0.000025  -0.000049  -0.000000  -0.000000
  280   B 2ZZZZ   0.000001  -0.000067  -0.000131  -0.000000  -0.000000
  281   B 2XXXY  -0.000000  -0.000000  -0.000000  -0.000000  -0.000000
  282   B 2XXXZ  -0.000000  -0.000000  -0.000000   0.000000   0.000014
  283   B 2YYYX  -0.000000  -0.000000  -0.000000  -0.000000  -0.000000
  284   B 2YYYZ  -0.000000  -0.000000  -0.000000   0.000014  -0.000000
  285   B 2ZZZX  -0.000000  -0.000000  -0.000000  -0.000000  -0.000019
  286   B 2ZZZY  -0.000000  -0.000000  -0.000000  -0.000019   0.000000
  287   B 2XXYY   0.000000  -0.000015  -0.000029  -0.000000  -0.000000
  288   B 2XXZZ  -0.000001   0.000059   0.000115  -0.000000  -0.000000
  289   B 2YYZZ  -0.000001   0.000059   0.000115  -0.000000  -0.000000
  290   B 2XXYZ  -0.000000  -0.000000  -0.000000   0.000006  -0.000000
  291   B 2YYXZ  -0.000000  -0.000000  -0.000000   0.000000   0.000006
  292   B 2ZZXY  -0.000000  -0.000000  -0.000000  -0.000000  -0.000000
  293   B 2XXXX  -0.000002   0.000135   0.000272  -0.000000  -0.000000
  294   B 2YYYY  -0.000002   0.000135   0.000272  -0.000000  -0.000000
  295   B 2ZZZZ  -0.000006   0.000361   0.000726  -0.000000  -0.000000
  296   B 2XXXY  -0.000000  -0.000000  -0.000000  -0.000000  -0.000000
  297   B 2XXXZ  -0.000000  -0.000000  -0.000000  -0.000000  -0.000070
  298   B 2YYYX  -0.000000  -0.000000  -0.000000  -0.000000  -0.000000
  299   B 2YYYZ  -0.000000  -0.000000  -0.000000  -0.000070   0.000000
  300   B 2ZZZX  -0.000000  -0.000000  -0.000000   0.000000   0.000094
  301   B 2ZZZY  -0.000000  -0.000000  -0.000000   0.000094  -0.000000
  302   B 2XXYY  -0.000001   0.000079   0.000159  -0.000000  -0.000000
  303   B 2XXZZ   0.000005  -0.000317  -0.000638  -0.000000  -0.000000
  304   B 2YYZZ   0.000005  -0.000317  -0.000638  -0.000000  -0.000000
  305   B 2XXYZ  -0.000000  -0.000000  -0.000000  -0.000032   0.000000
  306   B 2YYXZ  -0.000000  -0.000000  -0.000000  -0.000000  -0.000032
  307   B 2ZZXY  -0.000000  -0.000000  -0.000000  -0.000000  -0.000000
  308   B 2XXXX   0.000011  -0.000697  -0.001691  -0.000000  -0.000000
  309   B 2YYYY   0.000011  -0.000697  -0.001691  -0.000000  -0.000000
  310   B 2ZZZZ   0.000030  -0.001858  -0.004510  -0.000000  -0.000000
  311   B 2XXXY  -0.000000  -0.000000  -0.000000  -0.000000  -0.000000
  312   B 2XXXZ  -0.000000  -0.000000  -0.000000   0.000000   0.000105
  313   B 2YYYX  -0.000000  -0.000000  -0.000000  -0.000000  -0.000000
  314   B 2YYYZ  -0.000000  -0.000000  -0.000000   0.000105  -0.000000
  315   B 2ZZZX  -0.000000  -0.000000  -0.000000  -0.000000  -0.000140
  316   B 2ZZZY  -0.000000  -0.000000  -0.000000  -0.000140   0.000000
  317   B 2XXYY   0.000007  -0.000408  -0.000990  -0.000000  -0.000000
  318   B 2XXZZ  -0.000026   0.001632   0.003961  -0.000000  -0.000000
  319   B 2YYZZ  -0.000026   0.001632   0.003961  -0.000000  -0.000000
  320   B 2XXYZ  -0.000000  -0.000000  -0.000000   0.000047  -0.000000
  321   B 2YYXZ  -0.000000  -0.000000  -0.000000   0.000000   0.000047
  322   B 2ZZXY  -0.000000  -0.000000  -0.000000  -0.000000  -0.000000
  323   B XXXXX  -0.000000  -0.000000  -0.000000  -0.000000  -0.000023
  324   B YYYYY  -0.000000  -0.000000  -0.000000  -0.000023   0.000000
  325   B ZZZZZ   0.000002  -0.000034  -0.000084  -0.000000  -0.000000
  326   B XXXXY  -0.000000  -0.000000  -0.000000  -0.000008   0.000000
  327   B XXXXZ   0.000002  -0.000021  -0.000052  -0.000000  -0.000000
  328   B YYYYX  -0.000000  -0.000000  -0.000000  -0.000000  -0.000008
  329   B YYYYZ   0.000002  -0.000021  -0.000052  -0.000000  -0.000000
  330   B ZZZZX  -0.000000  -0.000000  -0.000000  -0.000000  -0.000062
  331   B ZZZZY  -0.000000  -0.000000  -0.000000  -0.000062   0.000000
  332   B XXXYY  -0.000000  -0.000000  -0.000000  -0.000000  -0.000010
  333   B XXXZZ  -0.000000  -0.000000  -0.000000   0.000000   0.000061
  334   B YYYXX  -0.000000  -0.000000  -0.000000  -0.000010   0.000000
  335   B YYYZZ  -0.000000  -0.000000  -0.000000   0.000061  -0.000000
  336   B ZZZXX  -0.000003   0.000037   0.000091  -0.000000  -0.000000
  337   B ZZZYY  -0.000003   0.000037   0.000091  -0.000000  -0.000000
  338   B XXXYZ  -0.000000  -0.000000  -0.000000  -0.000000  -0.000000
  339   B YYYXZ  -0.000000  -0.000000  -0.000000  -0.000000  -0.000000
  340   B ZZZXY  -0.000000  -0.000000  -0.000000  -0.000000  -0.000000
  341   B XXYYZ   0.000001  -0.000012  -0.000031  -0.000000  -0.000000
  342   B XXZZY  -0.000000  -0.000000  -0.000000   0.000027  -0.000000
  343   B YYZZX  -0.000000  -0.000000  -0.000000   0.000000   0.000027
  344   B XXXXX  -0.000000  -0.000000  -0.000000   0.000000   0.000270
  345   B YYYYY  -0.000000  -0.000000  -0.000000   0.000270  -0.000000
  346   B ZZZZZ  -0.000035   0.000409   0.001083  -0.000000  -0.000000
  347   B XXXXY  -0.000000  -0.000000  -0.000000   0.000090  -0.000000
  348   B XXXXZ  -0.000022   0.000256   0.000677  -0.000000  -0.000000
  349   B YYYYX  -0.000000  -0.000000  -0.000000   0.000000   0.000090
  350   B YYYYZ  -0.000022   0.000256   0.000677  -0.000000  -0.000000
  351   B ZZZZX  -0.000000  -0.000000  -0.000000   0.000000   0.000721
  352   B ZZZZY  -0.000000  -0.000000  -0.000000   0.000721  -0.000000
  353   B XXXYY  -0.000000  -0.000000  -0.000000   0.000000   0.000118
  354   B XXXZZ  -0.000000  -0.000000  -0.000000  -0.000000  -0.000708
  355   B YYYXX  -0.000000  -0.000000  -0.000000   0.000118  -0.000000
  356   B YYYZZ  -0.000000  -0.000000  -0.000000  -0.000708   0.000000
  357   B ZZZXX   0.000039  -0.000446  -0.001182  -0.000000  -0.000000
  358   B ZZZYY   0.000039  -0.000446  -0.001182  -0.000000  -0.000000
  359   B XXXYZ  -0.000000  -0.000000  -0.000000  -0.000000  -0.000000
  360   B YYYXZ  -0.000000  -0.000000  -0.000000  -0.000000  -0.000000
  361   B ZZZXY  -0.000000  -0.000000  -0.000000  -0.000000  -0.000000
  362   B XXYYZ  -0.000013   0.000150   0.000396  -0.000000  -0.000000
  363   B XXZZY  -0.000000  -0.000000  -0.000000  -0.000316   0.000000
  364   B YYZZX  -0.000000  -0.000000  -0.000000  -0.000000  -0.000316

                      6          7          8          9         10
                    0.2139     0.2915     0.2997     0.2997     0.3470
                     A          A          A          A          A   
    1  HE 1  S    0.112282  -0.149082   0.000000   0.000000   0.388993
    2  HE 1  S   -0.002460   0.011504   0.000000   0.000000  -0.029624
    3  HE 1  S    0.012491  -0.040037   0.000000   0.000000   0.107068
    4  HE 1  S   -0.044773   0.127198   0.000000   0.000000  -0.332315
    5  HE 1  S    0.305204  -0.373299   0.000000   0.000000   0.567507
    6  HE 1  S   -0.672450   0.797529   0.000000   0.000000   0.611607
    7  HE 1  S   -0.836213  -0.482639   0.000000   0.000000   2.284671
    8  HE 1  X    0.000000  -0.000000  -0.000000   0.000861   0.000000
    9  HE 1  Y    0.000000  -0.000000   0.000861   0.000000   0.000000
   10  HE 1  Z    0.000378   0.001105   0.000000   0.000000   0.001553
   11  HE 1  X    0.000000  -0.000000   0.000000  -0.005601   0.000000
   12  HE 1  Y    0.000000  -0.000000  -0.005601  -0.000000   0.000000
   13  HE 1  Z   -0.004634  -0.006872   0.000000   0.000000  -0.006934
   14  HE 1  X    0.000000  -0.000000  -0.000000   0.013724   0.000000
   15  HE 1  Y    0.000000  -0.000000   0.013724   0.000000   0.000000
   16  HE 1  Z    0.006366   0.017717   0.000000   0.000000   0.026761
   17  HE 1  X    0.000000  -0.000000   0.000001  -0.060238   0.000000
   18  HE 1  Y    0.000000  -0.000000  -0.060238  -0.000001   0.000000
   19  HE 1  Z   -0.054487  -0.074742   0.000000   0.000000  -0.086766
   20  HE 1  X    0.000000  -0.000000  -0.000003   0.115246   0.000000
   21  HE 1  Y    0.000000  -0.000000   0.115246   0.000003   0.000000
   22  HE 1  Z    0.081179   0.158279   0.000000   0.000000   0.179280
   23  HE 1  X    0.000000  -0.000000   0.000019  -0.835037   0.000000
   24  HE 1  Y    0.000000  -0.000000  -0.835037  -0.000019   0.000000
   25  HE 1  Z   -1.281214  -0.941715   0.000000   0.000000   2.626949
   26  HE 1 XX    0.000061   0.000028   0.000000   0.000000  -0.000151
   27  HE 1 YY    0.000061   0.000028   0.000000   0.000000  -0.000151
   28  HE 1 ZZ   -0.000122  -0.000056   0.000000   0.000000   0.000303
   29  HE 1 XY    0.000000  -0.000000   0.000000   0.000000   0.000000
   30  HE 1 XZ    0.000000  -0.000000  -0.000000   0.000038   0.000000
   31  HE 1 YZ    0.000000  -0.000000   0.000038   0.000000   0.000000
   32  HE 1 XX   -0.000301  -0.000186   0.000000   0.000000   0.000746
   33  HE 1 YY   -0.000301  -0.000186   0.000000   0.000000   0.000746
   34  HE 1 ZZ    0.000602   0.000373   0.000000   0.000000  -0.001493
   35  HE 1 XY    0.000000  -0.000000   0.000000   0.000000   0.000000
   36  HE 1 XZ    0.000000  -0.000000   0.000000  -0.000050   0.000000
   37  HE 1 YZ    0.000000  -0.000000  -0.000050  -0.000000   0.000000
   38  HE 1 XX    0.001403   0.000537   0.000000   0.000000  -0.003024
   39  HE 1 YY    0.001403   0.000537   0.000000   0.000000  -0.003024
   40  HE 1 ZZ   -0.002806  -0.001074   0.000000   0.000000   0.006047
   41  HE 1 XY    0.000000  -0.000000   0.000000   0.000000   0.000000
   42  HE 1 XZ    0.000000  -0.000000  -0.000000   0.000370   0.000000
   43  HE 1 YZ    0.000000  -0.000000   0.000370   0.000000   0.000000
   44  HE 1 XX   -0.007803  -0.004710   0.000000   0.000000   0.020219
   45  HE 1 YY   -0.007803  -0.004710   0.000000   0.000000   0.020219
   46  HE 1 ZZ    0.015606   0.009420   0.000000   0.000000  -0.040438
   47  HE 1 XY    0.000000  -0.000000   0.000000   0.000000   0.000000
   48  HE 1 XZ    0.000000  -0.000000  -0.000000   0.006415   0.000000
   49  HE 1 YZ    0.000000  -0.000000   0.006415   0.000000   0.000000
   50  HE 1 XX    0.077822   0.019527   0.000000   0.000000  -0.362812
   51  HE 1 YY    0.077822   0.019527   0.000000   0.000000  -0.362812
   52  HE 1 ZZ   -0.155644  -0.039054   0.000000   0.000000   0.725625
   53  HE 1 XY    0.000000  -0.000000   0.000000   0.000000   0.000000
   54  HE 1 XZ    0.000000  -0.000000   0.000001  -0.043758   0.000000
   55  HE 1 YZ    0.000000  -0.000000  -0.043758  -0.000001   0.000000
   56  HE 1 XXX   0.000000  -0.000000   0.000000  -0.000339   0.000000
   57  HE 1 YYY   0.000000  -0.000000  -0.000339  -0.000000   0.000000
   58  HE 1 ZZZ   0.000544   0.000437   0.000000   0.000000  -0.000568
   59  HE 1 XXY   0.000000  -0.000000  -0.000152  -0.000000   0.000000
   60  HE 1 XXZ  -0.000365  -0.000293   0.000000   0.000000   0.000381
   61  HE 1 YYX   0.000000  -0.000000   0.000000  -0.000152   0.000000
   62  HE 1 YYZ  -0.000365  -0.000293   0.000000   0.000000   0.000381
   63  HE 1 ZZX   0.000000  -0.000000  -0.000000   0.000606   0.000000
   64  HE 1 ZZY   0.000000  -0.000000   0.000606   0.000000   0.000000
   65  HE 1 XYZ   0.000000  -0.000000   0.000000   0.000000   0.000000
   66  HE 1 XXX   0.000000  -0.000000  -0.000000   0.001618   0.000000
   67  HE 1 YYY   0.000000  -0.000000   0.001618   0.000000   0.000000
   68  HE 1 ZZZ  -0.002628  -0.002076   0.000000   0.000000   0.002869
   69  HE 1 XXY   0.000000  -0.000000   0.000724   0.000000   0.000000
   70  HE 1 XXZ   0.001763   0.001393   0.000000   0.000000  -0.001925
   71  HE 1 YYX   0.000000  -0.000000  -0.000000   0.000724   0.000000
   72  HE 1 YYZ   0.001763   0.001393   0.000000   0.000000  -0.001925
   73  HE 1 ZZX   0.000000  -0.000000   0.000000  -0.002895   0.000000
   74  HE 1 ZZY   0.000000  -0.000000  -0.002895  -0.000000   0.000000
   75  HE 1 XYZ   0.000000  -0.000000   0.000000   0.000000   0.000000
   76  HE 1 XXX   0.000000  -0.000000   0.000000  -0.006085   0.000000
   77  HE 1 YYY   0.000000  -0.000000  -0.006085  -0.000000   0.000000
   78  HE 1 ZZZ   0.010075   0.007629   0.000000   0.000000  -0.013147
   79  HE 1 XXY   0.000000  -0.000000  -0.002721  -0.000000   0.000000
   80  HE 1 XXZ  -0.006758  -0.005118   0.000000   0.000000   0.008819
   81  HE 1 YYX   0.000000  -0.000000   0.000000  -0.002721   0.000000
   82  HE 1 YYZ  -0.006758  -0.005118   0.000000   0.000000   0.008819
   83  HE 1 ZZX   0.000000  -0.000000  -0.000000   0.010884   0.000000
   84  HE 1 ZZY   0.000000  -0.000000   0.010884   0.000000   0.000000
   85  HE 1 XYZ   0.000000  -0.000000   0.000000   0.000000   0.000000
   86  HE 1 XXX   0.000000  -0.000000  -0.000001   0.031108   0.000000
   87  HE 1 YYY   0.000000  -0.000000   0.031108   0.000001   0.000000
   88  HE 1 ZZZ  -0.057906  -0.035154   0.000000   0.000000   0.143218
   89  HE 1 XXY   0.000000  -0.000000   0.013912   0.000000   0.000000
   90  HE 1 XXZ   0.038844   0.023582   0.000000   0.000000  -0.096073
   91  HE 1 YYX   0.000000  -0.000000  -0.000000   0.013912   0.000000
   92  HE 1 YYZ   0.038844   0.023582   0.000000   0.000000  -0.096073
   93  HE 1 ZZX   0.000000  -0.000000   0.000001  -0.055647   0.000000
   94  HE 1 ZZY   0.000000  -0.000000  -0.055647  -0.000001   0.000000
   95  HE 1 XYZ   0.000000  -0.000000   0.000000   0.000000   0.000000
   96  HE 1XXXX  -0.000175  -0.000058   0.000000   0.000000   0.000144
   97  HE 1YYYY  -0.000175  -0.000058   0.000000   0.000000   0.000144
   98  HE 1ZZZZ  -0.000468  -0.000155   0.000000   0.000000   0.000383
   99  HE 1XXXY   0.000000  -0.000000   0.000000   0.000000   0.000000
  100  HE 1XXXZ   0.000000  -0.000000  -0.000000   0.000280   0.000000
  101  HE 1YYYX   0.000000  -0.000000   0.000000   0.000000   0.000000
  102  HE 1YYYZ   0.000000  -0.000000   0.000280   0.000000   0.000000
  103  HE 1ZZZX   0.000000  -0.000000   0.000000  -0.000373   0.000000
  104  HE 1ZZZY   0.000000  -0.000000  -0.000373  -0.000000   0.000000
  105  HE 1XXYY  -0.000103  -0.000034   0.000000   0.000000   0.000084
  106  HE 1XXZZ   0.000411   0.000136   0.000000   0.000000  -0.000336
  107  HE 1YYZZ   0.000411   0.000136   0.000000   0.000000  -0.000336
  108  HE 1XXYZ   0.000000  -0.000000   0.000125   0.000000   0.000000
  109  HE 1YYXZ   0.000000  -0.000000  -0.000000   0.000125   0.000000
  110  HE 1ZZXY   0.000000  -0.000000   0.000000   0.000000   0.000000
  111  HE 1XXXX   0.000970   0.000320   0.000000   0.000000  -0.000860
  112  HE 1YYYY   0.000970   0.000320   0.000000   0.000000  -0.000860
  113  HE 1ZZZZ   0.002586   0.000853   0.000000   0.000000  -0.002292
  114  HE 1XXXY   0.000000  -0.000000   0.000000   0.000000   0.000000
  115  HE 1XXXZ   0.000000  -0.000000   0.000000  -0.001555   0.000000
  116  HE 1YYYX   0.000000  -0.000000   0.000000   0.000000   0.000000
  117  HE 1YYYZ   0.000000  -0.000000  -0.001555  -0.000000   0.000000
  118  HE 1ZZZX   0.000000  -0.000000  -0.000000   0.002073   0.000000
  119  HE 1ZZZY   0.000000  -0.000000   0.002073   0.000000   0.000000
  120  HE 1XXYY   0.000568   0.000187   0.000000   0.000000  -0.000503
  121  HE 1XXZZ  -0.002272  -0.000749   0.000000   0.000000   0.002013
  122  HE 1YYZZ  -0.002272  -0.000749   0.000000   0.000000   0.002013
  123  HE 1XXYZ   0.000000  -0.000000  -0.000695  -0.000000   0.000000
  124  HE 1YYXZ   0.000000  -0.000000   0.000000  -0.000695   0.000000
  125  HE 1ZZXY   0.000000  -0.000000   0.000000   0.000000   0.000000
  126  HE 1XXXX  -0.005783  -0.001829   0.000000   0.000000   0.007739
  127  HE 1YYYY  -0.005783  -0.001829   0.000000   0.000000   0.007739
  128  HE 1ZZZZ  -0.015422  -0.004877   0.000000   0.000000   0.020639
  129  HE 1XXXY   0.000000  -0.000000   0.000000   0.000000   0.000000
  130  HE 1XXXZ   0.000000  -0.000000  -0.000000   0.009465   0.000000
  131  HE 1YYYX   0.000000  -0.000000   0.000000   0.000000   0.000000
  132  HE 1YYYZ   0.000000  -0.000000   0.009465   0.000000   0.000000
  133  HE 1ZZZX   0.000000  -0.000000   0.000000  -0.012620   0.000000
  134  HE 1ZZZY   0.000000  -0.000000  -0.012620  -0.000000   0.000000
  135  HE 1XXYY  -0.003387  -0.001071   0.000000   0.000000   0.004532
  136  HE 1XXZZ   0.013546   0.004283   0.000000   0.000000  -0.018127
  137  HE 1YYZZ   0.013546   0.004283   0.000000   0.000000  -0.018127
  138  HE 1XXYZ   0.000000  -0.000000   0.004233   0.000000   0.000000
  139  HE 1YYXZ   0.000000  -0.000000  -0.000000   0.004233   0.000000
  140  HE 1ZZXY   0.000000  -0.000000   0.000000   0.000000   0.000000
  141  HE XXXXX   0.000000  -0.000000  -0.000000   0.000059   0.000000
  142  HE YYYYY   0.000000  -0.000000   0.000059   0.000000   0.000000
  143  HE ZZZZZ   0.000252   0.000021   0.000000   0.000000  -0.000307
  144  HE XXXXY   0.000000  -0.000000   0.000020   0.000000   0.000000
  145  HE XXXXZ   0.000157   0.000013   0.000000   0.000000  -0.000192
  146  HE YYYYX   0.000000  -0.000000  -0.000000   0.000020   0.000000
  147  HE YYYYZ   0.000157   0.000013   0.000000   0.000000  -0.000192
  148  HE ZZZZX   0.000000  -0.000000  -0.000000   0.000157   0.000000
  149  HE ZZZZY   0.000000  -0.000000   0.000157   0.000000   0.000000
  150  HE XXXYY   0.000000  -0.000000  -0.000000   0.000026   0.000000
  151  HE XXXZZ   0.000000  -0.000000   0.000000  -0.000154   0.000000
  152  HE YYYXX   0.000000  -0.000000   0.000026   0.000000   0.000000
  153  HE YYYZZ   0.000000  -0.000000  -0.000154  -0.000000   0.000000
  154  HE ZZZXX  -0.000275  -0.000022   0.000000   0.000000   0.000335
  155  HE ZZZYY  -0.000275  -0.000022   0.000000   0.000000   0.000335
  156  HE XXXYZ   0.000000  -0.000000   0.000000   0.000000   0.000000
  157  HE YYYXZ   0.000000  -0.000000   0.000000   0.000000   0.000000
  158  HE ZZZXY   0.000000  -0.000000   0.000000   0.000000   0.000000
  159  HE XXYYZ   0.000092   0.000008   0.000000   0.000000  -0.000112
  160  HE XXZZY   0.000000  -0.000000  -0.000069  -0.000000   0.000000
  161  HE YYZZX   0.000000  -0.000000   0.000000  -0.000069   0.000000
  162  HE XXXXX   0.000000  -0.000000   0.000000  -0.000797   0.000000
  163  HE YYYYY   0.000000  -0.000000  -0.000797  -0.000000   0.000000
  164  HE ZZZZZ  -0.003280  -0.000283   0.000000   0.000000   0.004492
  165  HE XXXXY   0.000000  -0.000000  -0.000266  -0.000000   0.000000
  166  HE XXXXZ  -0.002050  -0.000177   0.000000   0.000000   0.002807
  167  HE YYYYX   0.000000  -0.000000   0.000000  -0.000266   0.000000
  168  HE YYYYZ  -0.002050  -0.000177   0.000000   0.000000   0.002807
  169  HE ZZZZX   0.000000  -0.000000   0.000000  -0.002124   0.000000
  170  HE ZZZZY   0.000000  -0.000000  -0.002124  -0.000000   0.000000
  171  HE XXXYY   0.000000  -0.000000   0.000000  -0.000348   0.000000
  172  HE XXXZZ   0.000000  -0.000000  -0.000000   0.002086   0.000000
  173  HE YYYXX   0.000000  -0.000000  -0.000348  -0.000000   0.000000
  174  HE YYYZZ   0.000000  -0.000000   0.002086   0.000000   0.000000
  175  HE ZZZXX   0.003579   0.000308   0.000000   0.000000  -0.004901
  176  HE ZZZYY   0.003579   0.000308   0.000000   0.000000  -0.004901
  177  HE XXXYZ   0.000000  -0.000000   0.000000   0.000000   0.000000
  178  HE YYYXZ   0.000000  -0.000000   0.000000   0.000000   0.000000
  179  HE ZZZXY   0.000000  -0.000000   0.000000   0.000000   0.000000
  180  HE XXYYZ  -0.001200  -0.000103   0.000000   0.000000   0.001644
  181  HE XXZZY   0.000000  -0.000000   0.000933   0.000000   0.000000
  182  HE YYZZX   0.000000  -0.000000  -0.000000   0.000933   0.000000
  183   B 2  S    0.038194  -0.040238   0.000000   0.000000  -0.004737
  184   B 2  S   -0.020407   0.021368   0.000000   0.000000   0.002466
  185   B 2  S    0.065728  -0.067406   0.000000   0.000000  -0.006246
  186   B 2  S   -0.256973   0.263641   0.000000   0.000000  -0.011632
  187   B 2  S    0.540262  -0.750271   0.000000   0.000000   0.589519
  188   B 2  S   -0.883146   2.254930   0.000000   0.000000  -2.373402
  189   B 2  S    1.672264  -0.913367   0.000000   0.000000  -1.611194
  190   B 2  X    0.000000  -0.000000   0.000000  -0.002748   0.000000
  191   B 2  Y    0.000000  -0.000000  -0.002748  -0.000000   0.000000
  192   B 2  Z   -0.000967  -0.001722   0.000000   0.000000   0.000277
  193   B 2  X    0.000000  -0.000000  -0.000000   0.012947   0.000000
  194   B 2  Y    0.000000  -0.000000   0.012947   0.000000   0.000000
  195   B 2  Z    0.004630   0.008146   0.000000   0.000000  -0.001431
  196   B 2  X    0.000000  -0.000000   0.000001  -0.043012   0.000000
[...]

          --------------------------
          R-USELIBXC SCF CALCULATION
          --------------------------
         DENSITY MATRIX CONVERGENCE THRESHOLD=  2.00E-05
     COARSE -> FINE DFT GRID SWITCH THRESHOLD=  3.00E-04 (SWITCH IN $DFT)
                   HF -> DFT SWITCH THRESHOLD=  5.00E-03 (SWOFF IN $DFT)

 DIRECT SCF CALCULATION, SCHWRZ=T   FDIFF=T,  DIRTHR=  0.00E+00 NITDIR=10

 DFT CODE IS SWITCHING FROM THE FINE GRID NRAD=999,  NLEB=  974
                      TO THE COARSE GRID NRAD0=249, NLEB0=  110

                                                                                   NONZERO     BLOCKS
 ITER EX DEM     TOTAL ENERGY        E CHANGE  DENSITY CHANGE    DIIS ERROR      INTEGRALS    SKIPPED
          * * *   INITIATING DIIS PROCEDURE   * * *
   1  0  0       -2.8525555031    -2.8525555031   0.000297158   0.000083697      202638502     421101
 DFT CODE IS SWITCHING BACK TO THE FINE GRID
          * * *   INITIATING DIIS PROCEDURE   * * *
   2  1  0       -2.8525553614     0.0000001418   0.000291413   0.000082443      204890071     418186
   3  2  0       -2.8525553610     0.0000000004   0.000002110   0.000001244       96457949     615442
   4  3  0       -2.8525553610     0.0000000000   0.000001527   0.000000385       15316295     887736

          -----------------
          DENSITY CONVERGED
          -----------------
     TIME TO FORM FOCK OPERATORS=      95.0 SECONDS (      23.8 SEC/ITER)
     FOCK TIME ON FIRST ITERATION=       6.7, LAST ITERATION=      27.5
     TIME TO SOLVE SCF EQUATIONS=       0.2 SECONDS (       0.0 SEC/ITER)

 FINAL R-USELIBXC ENERGY IS       -2.8525553610 AFTER   4 ITERATIONS
 DFT EXCHANGE + CORRELATION ENERGY =        -0.9961315933
 TOTAL ELECTRON NUMBER             =         1.9999999958

 LZ VALUE ANALYSIS FOR THE MOS
 ----------------------------------------
 MO     1 (    1) HAS LZ(WEIGHT)= 0.00(100.0%) 
 MO     2 (    2) HAS LZ(WEIGHT)= 0.00(100.0%) 
 MO     3 (    3) HAS LZ(WEIGHT)= 0.00(100.0%) 
 MO     4 (    4) HAS LZ(WEIGHT)=-1.00( 50.0%)  1.00( 50.0%) 
 MO     5 (    4) HAS LZ(WEIGHT)=-1.00( 50.0%)  1.00( 50.0%) 
 MO     6 (    5) HAS LZ(WEIGHT)= 0.00(100.0%) 
 MO     7 (    6) HAS LZ(WEIGHT)= 0.00(100.0%) 
 MO     8 (    7) HAS LZ(WEIGHT)=-1.00( 50.0%)  1.00( 50.0%) 
 MO     9 (    7) HAS LZ(WEIGHT)=-1.00( 50.0%)  1.00( 50.0%) 
 MO    10 (    8) HAS LZ(WEIGHT)= 0.00(100.0%) 
 MO    11 (    9) HAS LZ(WEIGHT)= 0.00(100.0%) 
 MO    12 (   10) HAS LZ(WEIGHT)=-2.00( 50.0%)  2.00( 50.0%) 
 MO    13 (   10) HAS LZ(WEIGHT)=-2.00( 50.0%)  2.00( 50.0%) 
 MO    14 (   11) HAS LZ(WEIGHT)=-1.00( 50.0%)  1.00( 50.0%) 
 MO    15 (   11) HAS LZ(WEIGHT)=-1.00( 50.0%)  1.00( 50.0%) 
 MO    16 (   12) HAS LZ(WEIGHT)= 0.00(100.0%) 
 MO    17 (   13) HAS LZ(WEIGHT)=-2.00( 50.0%)  2.00( 50.0%) 
 MO    18 (   13) HAS LZ(WEIGHT)=-2.00( 50.0%)  2.00( 50.0%) 
 MO    19 (   14) HAS LZ(WEIGHT)=-1.00( 50.0%)  1.00( 50.0%) 
 MO    20 (   14) HAS LZ(WEIGHT)=-1.00( 50.0%)  1.00( 50.0%) 
 MO    21 (   15) HAS LZ(WEIGHT)= 0.00(100.0%) 
 MO    22 (   16) HAS LZ(WEIGHT)= 0.00(100.0%) 
 MO    23 (   17) HAS LZ(WEIGHT)=-1.00( 50.0%)  1.00( 50.0%) 
 MO    24 (   17) HAS LZ(WEIGHT)=-1.00( 50.0%)  1.00( 50.0%) 
 MO    25 (   18) HAS LZ(WEIGHT)= 0.00(100.0%) 
 MO    26 (   19) HAS LZ(WEIGHT)=-1.00( 50.0%)  1.00( 50.0%) 
 MO    27 (   19) HAS LZ(WEIGHT)=-1.00( 50.0%)  1.00( 50.0%) 
 MO    28 (   20) HAS LZ(WEIGHT)= 0.00(100.0%) 
 MO    29 (   21) HAS LZ(WEIGHT)= 0.00(100.0%) 
 MO    30 (   22) HAS LZ(WEIGHT)=-2.00( 50.0%)  2.00( 50.0%) 
 MO    31 (   22) HAS LZ(WEIGHT)=-2.00( 50.0%)  2.00( 50.0%) 
 MO    32 (   23) HAS LZ(WEIGHT)=-3.00( 50.0%)  3.00( 50.0%) 
 MO    33 (   23) HAS LZ(WEIGHT)=-3.00( 50.0%)  3.00( 50.0%) 
 MO    34 (   24) HAS LZ(WEIGHT)=-1.00( 50.0%)  1.00( 50.0%) 
 MO    35 (   24) HAS LZ(WEIGHT)=-1.00( 50.0%)  1.00( 50.0%) 
 MO    36 (   25) HAS LZ(WEIGHT)=-3.00( 50.0%)  3.00( 50.0%) 
 MO    37 (   25) HAS LZ(WEIGHT)=-3.00( 50.0%)  3.00( 50.0%) 
 MO    38 (   26) HAS LZ(WEIGHT)= 0.00(100.0%) 
 MO    39 (   27) HAS LZ(WEIGHT)=-2.00( 50.0%)  2.00( 50.0%) 
 MO    40 (   27) HAS LZ(WEIGHT)=-2.00( 50.0%)  2.00( 50.0%) 
 MO    41 (   28) HAS LZ(WEIGHT)= 0.00(100.0%) 
 MO    42 (   29) HAS LZ(WEIGHT)=-1.00( 50.0%)  1.00( 50.0%) 
 MO    43 (   29) HAS LZ(WEIGHT)=-1.00( 50.0%)  1.00( 50.0%) 
 MO    44 (   30) HAS LZ(WEIGHT)= 0.00(100.0%) 
 MO    45 (   31) HAS LZ(WEIGHT)=-2.00( 50.0%)  2.00( 50.0%) 
 MO    46 (   31) HAS LZ(WEIGHT)=-2.00( 50.0%)  2.00( 50.0%) 
 MO    47 (   32) HAS LZ(WEIGHT)=-1.00( 50.0%)  1.00( 50.0%) 
 MO    48 (   32) HAS LZ(WEIGHT)=-1.00( 50.0%)  1.00( 50.0%) 
 MO    49 (   33) HAS LZ(WEIGHT)=-1.00( 50.0%)  1.00( 50.0%) 
 MO    50 (   33) HAS LZ(WEIGHT)=-1.00( 50.0%)  1.00( 50.0%) 
 MO    51 (   34) HAS LZ(WEIGHT)=-2.00( 50.0%)  2.00( 50.0%) 
 MO    52 (   34) HAS LZ(WEIGHT)=-2.00( 50.0%)  2.00( 50.0%) 
 MO    53 (   35) HAS LZ(WEIGHT)= 0.00(100.0%) 
 MO    54 (   36) HAS LZ(WEIGHT)=-1.00( 50.0%)  1.00( 50.0%) 
 MO    55 (   36) HAS LZ(WEIGHT)=-1.00( 50.0%)  1.00( 50.0%) 
 MO    56 (   37) HAS LZ(WEIGHT)= 0.00(100.0%) 
 MO    57 (   38) HAS LZ(WEIGHT)= 0.00(100.0%) 
 MO    58 (   39) HAS LZ(WEIGHT)=-2.00( 50.0%)  2.00( 50.0%) 
 MO    59 (   39) HAS LZ(WEIGHT)=-2.00( 50.0%)  2.00( 50.0%) 
 MO    60 (   40) HAS LZ(WEIGHT)=-3.00( 50.0%)  3.00( 50.0%) 
 MO    61 (   40) HAS LZ(WEIGHT)=-3.00( 50.0%)  3.00( 50.0%) 
 MO    62 (   41) HAS LZ(WEIGHT)=-1.00( 50.0%)  1.00( 50.0%) 
 MO    63 (   41) HAS LZ(WEIGHT)=-1.00( 50.0%)  1.00( 50.0%) 
 MO    64 (   42) HAS LZ(WEIGHT)=-4.00( 50.0%)  4.00( 50.0%) 
 MO    65 (   42) HAS LZ(WEIGHT)=-4.00( 50.0%)  4.00( 50.0%) 
 MO    66 (   43) HAS LZ(WEIGHT)=-4.00( 50.0%)  4.00( 50.0%) 
 MO    67 (   43) HAS LZ(WEIGHT)=-4.00( 50.0%)  4.00( 50.0%) 
 MO    68 (   44) HAS LZ(WEIGHT)=-1.00( 50.0%)  1.00( 50.0%) 
 MO    69 (   44) HAS LZ(WEIGHT)=-1.00( 50.0%)  1.00( 50.0%) 
 MO    70 (   45) HAS LZ(WEIGHT)=-3.00( 50.0%)  3.00( 50.0%) 
 MO    71 (   45) HAS LZ(WEIGHT)=-3.00( 50.0%)  3.00( 50.0%) 
 MO    72 (   46) HAS LZ(WEIGHT)= 0.00(100.0%) 
 MO    73 (   47) HAS LZ(WEIGHT)= 0.00(100.0%) 
 MO    74 (   48) HAS LZ(WEIGHT)=-2.00( 50.0%)  2.00( 50.0%) 
 MO    75 (   48) HAS LZ(WEIGHT)=-2.00( 50.0%)  2.00( 50.0%) 
 MO    76 (   49) HAS LZ(WEIGHT)= 0.00(100.0%) 
 MO    77 (   50) HAS LZ(WEIGHT)=-1.00( 50.0%)  1.00( 50.0%) 
 MO    78 (   50) HAS LZ(WEIGHT)=-1.00( 50.0%)  1.00( 50.0%) 
 MO    79 (   51) HAS LZ(WEIGHT)= 0.00(100.0%) 
 MO    80 (   52) HAS LZ(WEIGHT)=-3.00( 50.0%)  3.00( 50.0%) 
 MO    81 (   52) HAS LZ(WEIGHT)=-3.00( 50.0%)  3.00( 50.0%) 
 MO    82 (   53) HAS LZ(WEIGHT)=-2.00( 50.0%)  2.00( 50.0%) 
 MO    83 (   53) HAS LZ(WEIGHT)=-2.00( 50.0%)  2.00( 50.0%) 
 MO    84 (   54) HAS LZ(WEIGHT)=-1.00( 50.0%)  1.00( 50.0%) 
 MO    85 (   54) HAS LZ(WEIGHT)=-1.00( 50.0%)  1.00( 50.0%) 
 MO    86 (   55) HAS LZ(WEIGHT)= 0.00(100.0%) 
 MO    87 (   56) HAS LZ(WEIGHT)= 0.00(100.0%) 
 MO    88 (   57) HAS LZ(WEIGHT)=-2.00( 50.0%)  2.00( 50.0%) 
 MO    89 (   57) HAS LZ(WEIGHT)=-2.00( 50.0%)  2.00( 50.0%) 
 MO    90 (   58) HAS LZ(WEIGHT)=-3.00( 50.0%)  3.00( 50.0%) 
 MO    91 (   58) HAS LZ(WEIGHT)=-3.00( 50.0%)  3.00( 50.0%) 
 MO    92 (   59) HAS LZ(WEIGHT)=-3.00( 50.0%)  3.00( 50.0%) 
 MO    93 (   59) HAS LZ(WEIGHT)=-3.00( 50.0%)  3.00( 50.0%) 
 MO    94 (   60) HAS LZ(WEIGHT)=-2.00( 50.0%)  2.00( 50.0%) 
 MO    95 (   60) HAS LZ(WEIGHT)=-2.00( 50.0%)  2.00( 50.0%) 
 MO    96 (   61) HAS LZ(WEIGHT)=-1.00( 50.0%)  1.00( 50.0%) 
 MO    97 (   61) HAS LZ(WEIGHT)=-1.00( 50.0%)  1.00( 50.0%) 
 MO    98 (   62) HAS LZ(WEIGHT)=-4.00( 50.0%)  4.00( 50.0%) 
 MO    99 (   62) HAS LZ(WEIGHT)=-4.00( 50.0%)  4.00( 50.0%) 
 MO   100 (   63) HAS LZ(WEIGHT)=-5.00( 50.0%)  5.00( 50.0%) 
 MO   101 (   63) HAS LZ(WEIGHT)=-5.00( 50.0%)  5.00( 50.0%) 
 MO   102 (   64) HAS LZ(WEIGHT)=-5.00( 50.0%)  5.00( 50.0%) 
 MO   103 (   64) HAS LZ(WEIGHT)=-5.00( 50.0%)  5.00( 50.0%) 
 MO   104 (   65) HAS LZ(WEIGHT)=-4.00( 50.0%)  4.00( 50.0%) 
 MO   105 (   65) HAS LZ(WEIGHT)=-4.00( 50.0%)  4.00( 50.0%) 
 MO   106 (   66) HAS LZ(WEIGHT)=-1.00( 50.0%)  1.00( 50.0%) 
 MO   107 (   66) HAS LZ(WEIGHT)=-1.00( 50.0%)  1.00( 50.0%) 
 MO   108 (   67) HAS LZ(WEIGHT)= 0.00(100.0%) 
 MO   109 (   68) HAS LZ(WEIGHT)=-3.00( 50.0%)  3.00( 50.0%) 
 MO   110 (   68) HAS LZ(WEIGHT)=-3.00( 50.0%)  3.00( 50.0%) 
 MO   111 (   69) HAS LZ(WEIGHT)= 0.00(100.0%) 
 MO   112 (   70) HAS LZ(WEIGHT)=-1.00( 50.0%)  1.00( 50.0%) 
 MO   113 (   70) HAS LZ(WEIGHT)=-1.00( 50.0%)  1.00( 50.0%) 
 MO   114 (   71) HAS LZ(WEIGHT)= 0.00(100.0%) 
 MO   115 (   72) HAS LZ(WEIGHT)=-2.00( 50.0%)  2.00( 50.0%) 
 MO   116 (   72) HAS LZ(WEIGHT)=-2.00( 50.0%)  2.00( 50.0%) 
 MO   117 (   73) HAS LZ(WEIGHT)=-2.00( 50.0%)  2.00( 50.0%) 
 MO   118 (   73) HAS LZ(WEIGHT)=-2.00( 50.0%)  2.00( 50.0%) 
 MO   119 (   74) HAS LZ(WEIGHT)=-1.00( 50.0%)  1.00( 50.0%) 
 MO   120 (   74) HAS LZ(WEIGHT)=-1.00( 50.0%)  1.00( 50.0%) 
 MO   121 (   75) HAS LZ(WEIGHT)= 0.00(100.0%) 
 MO   122 (   76) HAS LZ(WEIGHT)=-1.00( 50.0%)  1.00( 50.0%) 
 MO   123 (   76) HAS LZ(WEIGHT)=-1.00( 50.0%)  1.00( 50.0%) 
 MO   124 (   77) HAS LZ(WEIGHT)=-2.00( 50.0%)  2.00( 50.0%) 
 MO   125 (   77) HAS LZ(WEIGHT)=-2.00( 50.0%)  2.00( 50.0%) 
 MO   126 (   78) HAS LZ(WEIGHT)= 0.00(100.0%) 
 MO   127 (   79) HAS LZ(WEIGHT)=-1.00( 50.0%)  1.00( 50.0%) 
 MO   128 (   79) HAS LZ(WEIGHT)=-1.00( 50.0%)  1.00( 50.0%) 
 MO   129 (   80) HAS LZ(WEIGHT)= 0.00(100.0%) 
 MO   130 (   81) HAS LZ(WEIGHT)=-1.00( 50.0%)  1.00( 50.0%) 
 MO   131 (   81) HAS LZ(WEIGHT)=-1.00( 50.0%)  1.00( 50.0%) 
 MO   132 (   82) HAS LZ(WEIGHT)= 0.00(100.0%) 
 MO   133 (   83) HAS LZ(WEIGHT)=-4.00( 50.0%)  4.00( 50.0%) 
 MO   134 (   83) HAS LZ(WEIGHT)=-4.00( 50.0%)  4.00( 50.0%) 
 MO   135 (   84) HAS LZ(WEIGHT)=-3.00( 50.0%)  3.00( 50.0%) 
 MO   136 (   84) HAS LZ(WEIGHT)=-3.00( 50.0%)  3.00( 50.0%) 
 MO   137 (   85) HAS LZ(WEIGHT)=-2.00( 50.0%)  2.00( 50.0%) 
 MO   138 (   85) HAS LZ(WEIGHT)=-2.00( 50.0%)  2.00( 50.0%) 
 MO   139 (   86) HAS LZ(WEIGHT)=-1.00( 50.0%)  1.00( 50.0%) 
 MO   140 (   86) HAS LZ(WEIGHT)=-1.00( 50.0%)  1.00( 50.0%) 
 MO   141 (   87) HAS LZ(WEIGHT)= 0.00(100.0%) 
 MO   142 (   88) HAS LZ(WEIGHT)=-4.00( 50.0%)  4.00( 50.0%) 
 MO   143 (   88) HAS LZ(WEIGHT)=-4.00( 50.0%)  4.00( 50.0%) 
 MO   144 (   89) HAS LZ(WEIGHT)=-3.00( 50.0%)  3.00( 50.0%) 
 MO   145 (   89) HAS LZ(WEIGHT)=-3.00( 50.0%)  3.00( 50.0%) 
 MO   146 (   90) HAS LZ(WEIGHT)=-2.00( 50.0%)  2.00( 50.0%) 
 MO   147 (   90) HAS LZ(WEIGHT)=-2.00( 50.0%)  2.00( 50.0%) 
 MO   148 (   91) HAS LZ(WEIGHT)= 0.00(100.0%) 
 MO   149 (   92) HAS LZ(WEIGHT)=-1.00( 50.0%)  1.00( 50.0%) 
 MO   150 (   92) HAS LZ(WEIGHT)=-1.00( 50.0%)  1.00( 50.0%) 
 MO   151 (   93) HAS LZ(WEIGHT)= 0.00(100.0%) 
 MO   152 (   94) HAS LZ(WEIGHT)=-3.00( 50.0%)  3.00( 50.0%) 
 MO   153 (   94) HAS LZ(WEIGHT)=-3.00( 50.0%)  3.00( 50.0%) 
 MO   154 (   95) HAS LZ(WEIGHT)=-2.00( 50.0%)  2.00( 50.0%) 
 MO   155 (   95) HAS LZ(WEIGHT)=-2.00( 50.0%)  2.00( 50.0%) 
 MO   156 (   96) HAS LZ(WEIGHT)=-1.00( 50.0%)  1.00( 50.0%) 
 MO   157 (   96) HAS LZ(WEIGHT)=-1.00( 50.0%)  1.00( 50.0%) 
 MO   158 (   97) HAS LZ(WEIGHT)= 0.00(100.0%) 
 MO   159 (   98) HAS LZ(WEIGHT)=-3.00( 50.0%)  3.00( 50.0%) 
 MO   160 (   98) HAS LZ(WEIGHT)=-3.00( 50.0%)  3.00( 50.0%) 
 MO   161 (   99) HAS LZ(WEIGHT)=-2.00( 50.0%)  2.00( 50.0%) 
 MO   162 (   99) HAS LZ(WEIGHT)=-2.00( 50.0%)  2.00( 50.0%) 
 MO   163 (  100) HAS LZ(WEIGHT)=-1.00( 50.0%)  1.00( 50.0%) 
 MO   164 (  100) HAS LZ(WEIGHT)=-1.00( 50.0%)  1.00( 50.0%) 
 MO   165 (  101) HAS LZ(WEIGHT)= 0.00(100.0%) 
 MO   166 (  102) HAS LZ(WEIGHT)= 0.00(100.0%) 
 MO   167 (  103) HAS LZ(WEIGHT)=-2.00( 50.0%)  2.00( 50.0%) 
 MO   168 (  103) HAS LZ(WEIGHT)=-2.00( 50.0%)  2.00( 50.0%) 
 MO   169 (  104) HAS LZ(WEIGHT)=-1.00( 50.0%)  1.00( 50.0%) 
 MO   170 (  104) HAS LZ(WEIGHT)=-1.00( 50.0%)  1.00( 50.0%) 
 MO   171 (  105) HAS LZ(WEIGHT)= 0.00(100.0%) 
 MO   172 (  106) HAS LZ(WEIGHT)=-1.00( 50.0%)  1.00( 50.0%) 
 MO   173 (  106) HAS LZ(WEIGHT)=-1.00( 50.0%)  1.00( 50.0%) 
 MO   174 (  107) HAS LZ(WEIGHT)= 0.00(100.0%) 
 MO   175 (  108) HAS LZ(WEIGHT)=-2.00( 50.0%)  2.00( 50.0%) 
 MO   176 (  108) HAS LZ(WEIGHT)=-2.00( 50.0%)  2.00( 50.0%) 
 MO   177 (  109) HAS LZ(WEIGHT)=-1.00( 50.0%)  1.00( 50.0%) 
 MO   178 (  109) HAS LZ(WEIGHT)=-1.00( 50.0%)  1.00( 50.0%) 
 MO   179 (  110) HAS LZ(WEIGHT)= 0.00(100.0%) 
 MO   180 (  111) HAS LZ(WEIGHT)=-1.00( 50.0%)  1.00( 50.0%) 
 MO   181 (  111) HAS LZ(WEIGHT)=-1.00( 50.0%)  1.00( 50.0%) 
 MO   182 (  112) HAS LZ(WEIGHT)= 0.00(100.0%) 
 MO   183 (  113) HAS LZ(WEIGHT)=-5.00( 50.0%)  5.00( 50.0%) 
 MO   184 (  113) HAS LZ(WEIGHT)=-5.00( 50.0%)  5.00( 50.0%) 
 MO   185 (  114) HAS LZ(WEIGHT)=-4.00( 50.0%)  4.00( 50.0%) 
 MO   186 (  114) HAS LZ(WEIGHT)=-4.00( 50.0%)  4.00( 50.0%) 
 MO   187 (  115) HAS LZ(WEIGHT)=-3.00( 50.0%)  3.00( 50.0%) 
 MO   188 (  115) HAS LZ(WEIGHT)=-3.00( 50.0%)  3.00( 50.0%) 
 MO   189 (  116) HAS LZ(WEIGHT)=-2.00( 50.0%)  2.00( 50.0%) 
 MO   190 (  116) HAS LZ(WEIGHT)=-2.00( 50.0%)  2.00( 50.0%) 
 MO   191 (  117) HAS LZ(WEIGHT)=-1.00( 50.0%)  1.00( 50.0%) 
 MO   192 (  117) HAS LZ(WEIGHT)=-1.00( 50.0%)  1.00( 50.0%) 
 MO   193 (  118) HAS LZ(WEIGHT)= 0.00(100.0%) 
 MO   194 (  119) HAS LZ(WEIGHT)=-4.00( 50.0%)  4.00( 50.0%) 
 MO   195 (  119) HAS LZ(WEIGHT)=-4.00( 50.0%)  4.00( 50.0%) 
 MO   196 (  120) HAS LZ(WEIGHT)=-5.00( 50.0%)  5.00( 50.0%) 
 MO   197 (  120) HAS LZ(WEIGHT)=-5.00( 50.0%)  5.00( 50.0%) 
 MO   198 (  121) HAS LZ(WEIGHT)=-3.00( 50.0%)  3.00( 50.0%) 
 MO   199 (  121) HAS LZ(WEIGHT)=-3.00( 50.0%)  3.00( 50.0%) 
 MO   200 (  122) HAS LZ(WEIGHT)=-2.00( 50.0%)  2.00( 50.0%) 
 MO   201 (  122) HAS LZ(WEIGHT)=-2.00( 50.0%)  2.00( 50.0%) 
 MO   202 (  123) HAS LZ(WEIGHT)= 0.00(100.0%) 
 MO   203 (  124) HAS LZ(WEIGHT)=-1.00( 50.0%)  1.00( 50.0%) 
 MO   204 (  124) HAS LZ(WEIGHT)=-1.00( 50.0%)  1.00( 50.0%) 
 MO   205 (  125) HAS LZ(WEIGHT)=-4.00( 50.0%)  4.00( 50.0%) 
 MO   206 (  125) HAS LZ(WEIGHT)=-4.00( 50.0%)  4.00( 50.0%) 
 MO   207 (  126) HAS LZ(WEIGHT)=-3.00( 50.0%)  3.00( 50.0%) 
 MO   208 (  126) HAS LZ(WEIGHT)=-3.00( 50.0%)  3.00( 50.0%) 
 MO   209 (  127) HAS LZ(WEIGHT)=-2.00( 50.0%)  2.00( 50.0%) 
 MO   210 (  127) HAS LZ(WEIGHT)=-2.00( 50.0%)  2.00( 50.0%) 
 MO   211 (  128) HAS LZ(WEIGHT)= 0.00(100.0%) 
 MO   212 (  129) HAS LZ(WEIGHT)=-1.00( 50.0%)  1.00( 50.0%) 
 MO   213 (  129) HAS LZ(WEIGHT)=-1.00( 50.0%)  1.00( 50.0%) 
 MO   214 (  130) HAS LZ(WEIGHT)=-4.00( 50.0%)  4.00( 50.0%) 
 MO   215 (  130) HAS LZ(WEIGHT)=-4.00( 50.0%)  4.00( 50.0%) 
 MO   216 (  131) HAS LZ(WEIGHT)=-3.00( 50.0%)  3.00( 50.0%) 
 MO   217 (  131) HAS LZ(WEIGHT)=-3.00( 50.0%)  3.00( 50.0%) 
 MO   218 (  132) HAS LZ(WEIGHT)=-2.00( 50.0%)  2.00( 50.0%) 
 MO   219 (  132) HAS LZ(WEIGHT)=-2.00( 50.0%)  2.00( 50.0%) 
 MO   220 (  133) HAS LZ(WEIGHT)= 0.00(100.0%) 
 MO   221 (  134) HAS LZ(WEIGHT)=-1.00( 50.0%)  1.00( 50.0%) 
 MO   222 (  134) HAS LZ(WEIGHT)=-1.00( 50.0%)  1.00( 50.0%) 
 MO   223 (  135) HAS LZ(WEIGHT)=-3.00( 50.0%)  3.00( 50.0%) 
 MO   224 (  135) HAS LZ(WEIGHT)=-3.00( 50.0%)  3.00( 50.0%) 
 MO   225 (  136) HAS LZ(WEIGHT)=-2.00( 50.0%)  2.00( 50.0%) 
 MO   226 (  136) HAS LZ(WEIGHT)=-2.00( 50.0%)  2.00( 50.0%) 
 MO   227 (  137) HAS LZ(WEIGHT)=-1.00( 50.0%)  1.00( 50.0%) 
 MO   228 (  137) HAS LZ(WEIGHT)=-1.00( 50.0%)  1.00( 50.0%) 
 MO   229 (  138) HAS LZ(WEIGHT)= 0.00(100.0%) 
 MO   230 (  139) HAS LZ(WEIGHT)=-3.00( 50.0%)  3.00( 50.0%) 
 MO   231 (  139) HAS LZ(WEIGHT)=-3.00( 50.0%)  3.00( 50.0%) 
 MO   232 (  140) HAS LZ(WEIGHT)=-2.00( 50.0%)  2.00( 50.0%) 
 MO   233 (  140) HAS LZ(WEIGHT)=-2.00( 50.0%)  2.00( 50.0%) 
 MO   234 (  141) HAS LZ(WEIGHT)=-1.00( 50.0%)  1.00( 50.0%) 
 MO   235 (  141) HAS LZ(WEIGHT)=-1.00( 50.0%)  1.00( 50.0%) 
 MO   236 (  142) HAS LZ(WEIGHT)= 0.00(100.0%) 
 MO   237 (  143) HAS LZ(WEIGHT)= 0.00(100.0%) 
 MO   238 (  144) HAS LZ(WEIGHT)=-2.00( 50.0%)  2.00( 50.0%) 
 MO   239 (  144) HAS LZ(WEIGHT)=-2.00( 50.0%)  2.00( 50.0%) 
 MO   240 (  145) HAS LZ(WEIGHT)=-1.00( 50.0%)  1.00( 50.0%) 
 MO   241 (  145) HAS LZ(WEIGHT)=-1.00( 50.0%)  1.00( 50.0%) 
 MO   242 (  146) HAS LZ(WEIGHT)= 0.00(100.0%) 
 MO   243 (  147) HAS LZ(WEIGHT)=-1.00( 50.0%)  1.00( 50.0%) 
 MO   244 (  147) HAS LZ(WEIGHT)=-1.00( 50.0%)  1.00( 50.0%) 
 MO   245 (  148) HAS LZ(WEIGHT)= 0.00(100.0%) 
 MO   246 (  149) HAS LZ(WEIGHT)=-2.00( 50.0%)  2.00( 50.0%) 
 MO   247 (  149) HAS LZ(WEIGHT)=-2.00( 50.0%)  2.00( 50.0%) 
 MO   248 (  150) HAS LZ(WEIGHT)=-1.00( 50.0%)  1.00( 50.0%) 
 MO   249 (  150) HAS LZ(WEIGHT)=-1.00( 50.0%)  1.00( 50.0%) 
 MO   250 (  151) HAS LZ(WEIGHT)= 0.00(100.0%) 
 MO   251 (  152) HAS LZ(WEIGHT)=-1.00( 50.0%)  1.00( 50.0%) 
 MO   252 (  152) HAS LZ(WEIGHT)=-1.00( 50.0%)  1.00( 50.0%) 
 MO   253 (  153) HAS LZ(WEIGHT)= 0.00(100.0%) 
 MO   254 (  154) HAS LZ(WEIGHT)= 0.00(100.0%) 
 ...... END OF RHF CALCULATION ......
 CPU     0: STEP CPU TIME=    95.36 TOTAL CPU TIME=        394.7 (      6.6 MIN)
 TOTAL WALL CLOCK TIME=        397.8 SECONDS, CPU UTILIZATION IS    99.22%
 IMODE=    1 IVIB= 2 E=        -2.8525553610

                         ----------------------
                         GRADIENT OF THE ENERGY
                         ----------------------

 UNITS ARE HARTREE/BOHR    E'X               E'Y               E'Z 
    1 HE               0.000000000       0.000000000      -0.000000032
    2 HE               0.000000000       0.000000000       0.000000032

                   MAXIMUM GRADIENT =    0.000000032
                       RMS GRADIENT =    0.000000018
  $VIB   
          IVIB=   0 IATOM=   0 ICOORD=   0 E=       -2.8525553605
  0.000000000E+00 0.000000000E+00-3.187892177E-08 0.000000000E+00 0.000000000E+00
  3.187892177E-08
 -1.109989761E-28-1.109981614E-28 1.232794995E-05

..... END OF SINGLE POINT GRADIENT .....
 CPU     0: STEP CPU TIME=     0.01 TOTAL CPU TIME=        394.7 (      6.6 MIN)
 TOTAL WALL CLOCK TIME=        397.9 SECONDS, CPU UTILIZATION IS    99.21%

 AN AIMPAC INPUT FILE IS BEING WRITTEN TO FILE   7

              3606981  WORDS OF DYNAMIC MEMORY USED
 EXECUTION OF GAMESS TERMINATED NORMALLY 21:02:29 15-NOV-2021    
 DDI: 263656 bytes (0.3 MB / 0 MWords) used by master data server.
Note: The following floating-point exceptions are signalling: IEEE_UNDERFLOW_FLAG IEEE_DENORMAL

 ----------------------------------------
 CPU timing information for all processes
 ========================================
 0: 393.912 + 0.859 = 394.771
 1: 393.142 + 0.485 = 393.628
 2: 392.679 + 0.588 = 393.268
 3: 393.444 + 0.411 = 393.856
 ----------------------------------------
Note: The following floating-point exceptions are signalling: IEEE_UNDERFLOW_FLAG IEEE_DENORMAL
Note: The following floating-point exceptions are signalling: IEEE_UNDERFLOW_FLAG IEEE_DENORMAL
Note: The following floating-point exceptions are signalling: IEEE_UNDERFLOW_FLAG IEEE_DENORMAL
 ddikick.x: exited gracefully.
unset echo
----- accounting info -----
Files used on the master node n146 were:
-rw-r--r-- 1 dzaripov g0130  1519315 Nov 15 21:02 /s/ls4/users/dzaripov/scratch/GAMESS_AM05_ACC6m_DIIS_HeHeBq_2.000.dat
-rw-r--r-- 1 dzaripov g0130      432 Nov 15 20:55 /s/ls4/users/dzaripov/scratch/GAMESS_AM05_ACC6m_DIIS_HeHeBq_2.000.F05
-rw-r--r-- 1 dzaripov g0130 15869200 Nov 15 21:02 /s/ls4/users/dzaripov/scratch/GAMESS_AM05_ACC6m_DIIS_HeHeBq_2.000.F10
-rw-r--r-- 1 dzaripov g0130 16062864 Nov 15 21:01 /s/ls4/users/dzaripov/scratch/GAMESS_AM05_ACC6m_DIIS_HeHeBq_2.000.F22
-rw-r--r-- 1 dzaripov g0130 16062864 Nov 15 21:01 /s/ls4/users/dzaripov/scratch/GAMESS_AM05_ACC6m_DIIS_HeHeBq_2.000.F22.001
-rw-r--r-- 1 dzaripov g0130 16062864 Nov 15 21:01 /s/ls4/users/dzaripov/scratch/GAMESS_AM05_ACC6m_DIIS_HeHeBq_2.000.F22.002
-rw-r--r-- 1 dzaripov g0130 16062864 Nov 15 21:01 /s/ls4/users/dzaripov/scratch/GAMESS_AM05_ACC6m_DIIS_HeHeBq_2.000.F22.003
ls: No match.
ls: No match.
ls: No match.
Mon Nov 15 21:02:33 MSK 2021
0.482u 0.123s 6:42.05 0.1%	0+0k 8+16io 2pf+0w
