 ./GAMESS_AM05_ACC6m_DIIS_HeHe_2.000.inp                                        
GAUSSIAN              2 MOL ORBITALS    382 PRIMITIVES        2 NUCLEI
  HE   1    (CENTRE  1)   0.00000000  0.00000000 -1.88972599  CHARGE =  2.0
  HE   2    (CENTRE  2)   0.00000000  0.00000000  1.88972599  CHARGE =  2.0
CENTRE ASSIGNMENTS    1  1  1  1  1  1  1  1  1  1  1  1  1  1  1  1  1  1  1  1
CENTRE ASSIGNMENTS    1  1  1  1  1  1  1  1  1  1  1  1  1  1  1  1  1  1  1  1
CENTRE ASSIGNMENTS    1  1  1  1  1  1  1  1  1  1  1  1  1  1  1  1  1  1  1  1
CENTRE ASSIGNMENTS    1  1  1  1  1  1  1  1  1  1  1  1  1  1  1  1  1  1  1  1
CENTRE ASSIGNMENTS    1  1  1  1  1  1  1  1  1  1  1  1  1  1  1  1  1  1  1  1
CENTRE ASSIGNMENTS    1  1  1  1  1  1  1  1  1  1  1  1  1  1  1  1  1  1  1  1
CENTRE ASSIGNMENTS    1  1  1  1  1  1  1  1  1  1  1  1  1  1  1  1  1  1  1  1
CENTRE ASSIGNMENTS    1  1  1  1  1  1  1  1  1  1  1  1  1  1  1  1  1  1  1  1
CENTRE ASSIGNMENTS    1  1  1  1  1  1  1  1  1  1  1  1  1  1  1  1  1  1  1  1
CENTRE ASSIGNMENTS    1  1  1  1  1  1  1  1  1  1  1  2  2  2  2  2  2  2  2  2
CENTRE ASSIGNMENTS    2  2  2  2  2  2  2  2  2  2  2  2  2  2  2  2  2  2  2  2
CENTRE ASSIGNMENTS    2  2  2  2  2  2  2  2  2  2  2  2  2  2  2  2  2  2  2  2
CENTRE ASSIGNMENTS    2  2  2  2  2  2  2  2  2  2  2  2  2  2  2  2  2  2  2  2
CENTRE ASSIGNMENTS    2  2  2  2  2  2  2  2  2  2  2  2  2  2  2  2  2  2  2  2
CENTRE ASSIGNMENTS    2  2  2  2  2  2  2  2  2  2  2  2  2  2  2  2  2  2  2  2
CENTRE ASSIGNMENTS    2  2  2  2  2  2  2  2  2  2  2  2  2  2  2  2  2  2  2  2
CENTRE ASSIGNMENTS    2  2  2  2  2  2  2  2  2  2  2  2  2  2  2  2  2  2  2  2
CENTRE ASSIGNMENTS    2  2  2  2  2  2  2  2  2  2  2  2  2  2  2  2  2  2  2  2
CENTRE ASSIGNMENTS    2  2  2  2  2  2  2  2  2  2  2  2  2  2  2  2  2  2  2  2
CENTRE ASSIGNMENTS    2  2
TYPE ASSIGNMENTS      1  1  1  1  1  1  1  1  1  1  1  1  1  1  1  1  2  3  4  2
TYPE ASSIGNMENTS      3  4  2  3  4  2  3  4  2  3  4  2  3  4  5  6  7  8  9 10
TYPE ASSIGNMENTS      5  6  7  8  9 10  5  6  7  8  9 10  5  6  7  8  9 10  5  6
TYPE ASSIGNMENTS      7  8  9 10 11 12 13 14 15 16 17 18 19 20 11 12 13 14 15 16
TYPE ASSIGNMENTS     17 18 19 20 11 12 13 14 15 16 17 18 19 20 11 12 13 14 15 16
TYPE ASSIGNMENTS     17 18 19 20 21 22 23 24 25 26 27 28 29 30 31 32 33 34 35 21
TYPE ASSIGNMENTS     22 23 24 25 26 27 28 29 30 31 32 33 34 35 21 22 23 24 25 26
TYPE ASSIGNMENTS     27 28 29 30 31 32 33 34 35 36 37 38 39 40 41 42 43 44 45 46
TYPE ASSIGNMENTS     47 48 49 50 51 52 53 54 55 56 36 37 38 39 40 41 42 43 44 45
TYPE ASSIGNMENTS     46 47 48 49 50 51 52 53 54 55 56  1  1  1  1  1  1  1  1  1
TYPE ASSIGNMENTS      1  1  1  1  1  1  1  2  3  4  2  3  4  2  3  4  2  3  4  2
TYPE ASSIGNMENTS      3  4  2  3  4  5  6  7  8  9 10  5  6  7  8  9 10  5  6  7
TYPE ASSIGNMENTS      8  9 10  5  6  7  8  9 10  5  6  7  8  9 10 11 12 13 14 15
TYPE ASSIGNMENTS     16 17 18 19 20 11 12 13 14 15 16 17 18 19 20 11 12 13 14 15
TYPE ASSIGNMENTS     16 17 18 19 20 11 12 13 14 15 16 17 18 19 20 21 22 23 24 25
TYPE ASSIGNMENTS     26 27 28 29 30 31 32 33 34 35 21 22 23 24 25 26 27 28 29 30
TYPE ASSIGNMENTS     31 32 33 34 35 21 22 23 24 25 26 27 28 29 30 31 32 33 34 35
TYPE ASSIGNMENTS     36 37 38 39 40 41 42 43 44 45 46 47 48 49 50 51 52 53 54 55
TYPE ASSIGNMENTS     56 36 37 38 39 40 41 42 43 44 45 46 47 48 49 50 51 52 53 54
TYPE ASSIGNMENTS     55 56
EXPONENTS  4.7850000E+03 7.1700000E+02 1.6320000E+02 4.6260000E+01 1.5100000E+01
EXPONENTS  5.4370000E+00 2.0880000E+00 8.2970000E-01 3.3660000E-01 1.3690000E-01
EXPONENTS  5.4370000E+00 2.0880000E+00 8.2970000E-01 3.3660000E-01 1.3690000E-01
EXPONENTS  4.4730000E-02 1.6104000E+01 1.6104000E+01 1.6104000E+01 6.3420000E+00
EXPONENTS  6.3420000E+00 6.3420000E+00 2.4980000E+00 2.4980000E+00 2.4980000E+00
EXPONENTS  9.8400000E-01 9.8400000E-01 9.8400000E-01 3.8700000E-01 3.8700000E-01
EXPONENTS  3.8700000E-01 1.2800000E-01 1.2800000E-01 1.2800000E-01 1.2498000E+01
EXPONENTS  1.2498000E+01 1.2498000E+01 1.2498000E+01 1.2498000E+01 1.2498000E+01
EXPONENTS  4.8860000E+00 4.8860000E+00 4.8860000E+00 4.8860000E+00 4.8860000E+00
EXPONENTS  4.8860000E+00 1.9100000E+00 1.9100000E+00 1.9100000E+00 1.9100000E+00
EXPONENTS  1.9100000E+00 1.9100000E+00 7.4700000E-01 7.4700000E-01 7.4700000E-01
EXPONENTS  7.4700000E-01 7.4700000E-01 7.4700000E-01 2.4100000E-01 2.4100000E-01
EXPONENTS  2.4100000E-01 2.4100000E-01 2.4100000E-01 2.4100000E-01 9.2760000E+00
EXPONENTS  9.2760000E+00 9.2760000E+00 9.2760000E+00 9.2760000E+00 9.2760000E+00
EXPONENTS  9.2760000E+00 9.2760000E+00 9.2760000E+00 9.2760000E+00 3.4620000E+00
EXPONENTS  3.4620000E+00 3.4620000E+00 3.4620000E+00 3.4620000E+00 3.4620000E+00
EXPONENTS  3.4620000E+00 3.4620000E+00 3.4620000E+00 3.4620000E+00 1.2920000E+00
EXPONENTS  1.2920000E+00 1.2920000E+00 1.2920000E+00 1.2920000E+00 1.2920000E+00
EXPONENTS  1.2920000E+00 1.2920000E+00 1.2920000E+00 1.2920000E+00 4.0700000E-01
EXPONENTS  4.0700000E-01 4.0700000E-01 4.0700000E-01 4.0700000E-01 4.0700000E-01
EXPONENTS  4.0700000E-01 4.0700000E-01 4.0700000E-01 4.0700000E-01 6.5860000E+00
EXPONENTS  6.5860000E+00 6.5860000E+00 6.5860000E+00 6.5860000E+00 6.5860000E+00
EXPONENTS  6.5860000E+00 6.5860000E+00 6.5860000E+00 6.5860000E+00 6.5860000E+00
EXPONENTS  6.5860000E+00 6.5860000E+00 6.5860000E+00 6.5860000E+00 2.2360000E+00
EXPONENTS  2.2360000E+00 2.2360000E+00 2.2360000E+00 2.2360000E+00 2.2360000E+00
EXPONENTS  2.2360000E+00 2.2360000E+00 2.2360000E+00 2.2360000E+00 2.2360000E+00
EXPONENTS  2.2360000E+00 2.2360000E+00 2.2360000E+00 2.2360000E+00 6.8600000E-01
EXPONENTS  6.8600000E-01 6.8600000E-01 6.8600000E-01 6.8600000E-01 6.8600000E-01
EXPONENTS  6.8600000E-01 6.8600000E-01 6.8600000E-01 6.8600000E-01 6.8600000E-01
EXPONENTS  6.8600000E-01 6.8600000E-01 6.8600000E-01 6.8600000E-01 4.1590000E+00
EXPONENTS  4.1590000E+00 4.1590000E+00 4.1590000E+00 4.1590000E+00 4.1590000E+00
EXPONENTS  4.1590000E+00 4.1590000E+00 4.1590000E+00 4.1590000E+00 4.1590000E+00
EXPONENTS  4.1590000E+00 4.1590000E+00 4.1590000E+00 4.1590000E+00 4.1590000E+00
EXPONENTS  4.1590000E+00 4.1590000E+00 4.1590000E+00 4.1590000E+00 4.1590000E+00
EXPONENTS  1.0160000E+00 1.0160000E+00 1.0160000E+00 1.0160000E+00 1.0160000E+00
EXPONENTS  1.0160000E+00 1.0160000E+00 1.0160000E+00 1.0160000E+00 1.0160000E+00
EXPONENTS  1.0160000E+00 1.0160000E+00 1.0160000E+00 1.0160000E+00 1.0160000E+00
EXPONENTS  1.0160000E+00 1.0160000E+00 1.0160000E+00 1.0160000E+00 1.0160000E+00
EXPONENTS  1.0160000E+00 4.7850000E+03 7.1700000E+02 1.6320000E+02 4.6260000E+01
EXPONENTS  1.5100000E+01 5.4370000E+00 2.0880000E+00 8.2970000E-01 3.3660000E-01
EXPONENTS  1.3690000E-01 5.4370000E+00 2.0880000E+00 8.2970000E-01 3.3660000E-01
EXPONENTS  1.3690000E-01 4.4730000E-02 1.6104000E+01 1.6104000E+01 1.6104000E+01
EXPONENTS  6.3420000E+00 6.3420000E+00 6.3420000E+00 2.4980000E+00 2.4980000E+00
EXPONENTS  2.4980000E+00 9.8400000E-01 9.8400000E-01 9.8400000E-01 3.8700000E-01
EXPONENTS  3.8700000E-01 3.8700000E-01 1.2800000E-01 1.2800000E-01 1.2800000E-01
EXPONENTS  1.2498000E+01 1.2498000E+01 1.2498000E+01 1.2498000E+01 1.2498000E+01
EXPONENTS  1.2498000E+01 4.8860000E+00 4.8860000E+00 4.8860000E+00 4.8860000E+00
EXPONENTS  4.8860000E+00 4.8860000E+00 1.9100000E+00 1.9100000E+00 1.9100000E+00
EXPONENTS  1.9100000E+00 1.9100000E+00 1.9100000E+00 7.4700000E-01 7.4700000E-01
EXPONENTS  7.4700000E-01 7.4700000E-01 7.4700000E-01 7.4700000E-01 2.4100000E-01
EXPONENTS  2.4100000E-01 2.4100000E-01 2.4100000E-01 2.4100000E-01 2.4100000E-01
EXPONENTS  9.2760000E+00 9.2760000E+00 9.2760000E+00 9.2760000E+00 9.2760000E+00
EXPONENTS  9.2760000E+00 9.2760000E+00 9.2760000E+00 9.2760000E+00 9.2760000E+00
EXPONENTS  3.4620000E+00 3.4620000E+00 3.4620000E+00 3.4620000E+00 3.4620000E+00
EXPONENTS  3.4620000E+00 3.4620000E+00 3.4620000E+00 3.4620000E+00 3.4620000E+00
EXPONENTS  1.2920000E+00 1.2920000E+00 1.2920000E+00 1.2920000E+00 1.2920000E+00
EXPONENTS  1.2920000E+00 1.2920000E+00 1.2920000E+00 1.2920000E+00 1.2920000E+00
EXPONENTS  4.0700000E-01 4.0700000E-01 4.0700000E-01 4.0700000E-01 4.0700000E-01
EXPONENTS  4.0700000E-01 4.0700000E-01 4.0700000E-01 4.0700000E-01 4.0700000E-01
EXPONENTS  6.5860000E+00 6.5860000E+00 6.5860000E+00 6.5860000E+00 6.5860000E+00
EXPONENTS  6.5860000E+00 6.5860000E+00 6.5860000E+00 6.5860000E+00 6.5860000E+00
EXPONENTS  6.5860000E+00 6.5860000E+00 6.5860000E+00 6.5860000E+00 6.5860000E+00
EXPONENTS  2.2360000E+00 2.2360000E+00 2.2360000E+00 2.2360000E+00 2.2360000E+00
EXPONENTS  2.2360000E+00 2.2360000E+00 2.2360000E+00 2.2360000E+00 2.2360000E+00
EXPONENTS  2.2360000E+00 2.2360000E+00 2.2360000E+00 2.2360000E+00 2.2360000E+00
EXPONENTS  6.8600000E-01 6.8600000E-01 6.8600000E-01 6.8600000E-01 6.8600000E-01
EXPONENTS  6.8600000E-01 6.8600000E-01 6.8600000E-01 6.8600000E-01 6.8600000E-01
EXPONENTS  6.8600000E-01 6.8600000E-01 6.8600000E-01 6.8600000E-01 6.8600000E-01
EXPONENTS  4.1590000E+00 4.1590000E+00 4.1590000E+00 4.1590000E+00 4.1590000E+00
EXPONENTS  4.1590000E+00 4.1590000E+00 4.1590000E+00 4.1590000E+00 4.1590000E+00
EXPONENTS  4.1590000E+00 4.1590000E+00 4.1590000E+00 4.1590000E+00 4.1590000E+00
EXPONENTS  4.1590000E+00 4.1590000E+00 4.1590000E+00 4.1590000E+00 4.1590000E+00
EXPONENTS  4.1590000E+00 1.0160000E+00 1.0160000E+00 1.0160000E+00 1.0160000E+00
EXPONENTS  1.0160000E+00 1.0160000E+00 1.0160000E+00 1.0160000E+00 1.0160000E+00
EXPONENTS  1.0160000E+00 1.0160000E+00 1.0160000E+00 1.0160000E+00 1.0160000E+00
EXPONENTS  1.0160000E+00 1.0160000E+00 1.0160000E+00 1.0160000E+00 1.0160000E+00
EXPONENTS  1.0160000E+00 1.0160000E+00
MO  1                     OCC NO =   2.00000000 ORB. ENERGY =  -0.58577546
 -1.70625240E-02 -3.21897640E-02 -5.50694209E-02 -8.87289417E-02 -1.31989888E-01
 -1.73196575E-01 -1.85718444E-01 -1.49988868E-01 -7.57085119E-02 -1.28143898E-02
 -1.14855063E-03  4.34557795E-03  6.67141197E-03  3.17273778E-03 -2.67356824E-03
 -3.02603804E-04  0.00000000E+00  0.00000000E+00 -3.20867382E-04  0.00000000E+00
  0.00000000E+00 -1.96104562E-03  0.00000000E+00  0.00000000E+00 -4.10339321E-04
  0.00000000E+00  0.00000000E+00 -1.96478057E-03  0.00000000E+00  0.00000000E+00
 -1.59187117E-03  0.00000000E+00  0.00000000E+00 -1.90824653E-05 -2.57999582E-04
 -2.57999663E-04  5.15999246E-04  0.00000000E+00  0.00000000E+00  0.00000000E+00
  4.97192682E-04  4.97192748E-04 -9.94385431E-04  0.00000000E+00  0.00000000E+00
  0.00000000E+00 -1.51582726E-04 -1.51582782E-04  3.03165508E-04  0.00000000E+00
  0.00000000E+00  0.00000000E+00  4.85639726E-04  4.85639769E-04 -9.71279496E-04
  0.00000000E+00  0.00000000E+00  0.00000000E+00 -1.28743826E-05 -1.28744070E-05
  2.57487896E-05  0.00000000E+00  0.00000000E+00  0.00000000E+00  0.00000000E+00
  0.00000000E+00 -1.34011798E-03  0.00000000E+00  2.01017565E-03  2.01017831E-03
  0.00000000E+00  0.00000000E+00  0.00000000E+00  0.00000000E+00  0.00000000E+00
  0.00000000E+00  6.25722879E-04  0.00000000E+00 -9.38584110E-04 -9.38584527E-04
  0.00000000E+00  0.00000000E+00  0.00000000E+00  0.00000000E+00  0.00000000E+00
  0.00000000E+00 -4.18968351E-04  0.00000000E+00  6.28452553E-04  6.28452501E-04
  0.00000000E+00  0.00000000E+00  0.00000000E+00  0.00000000E+00  0.00000000E+00
  0.00000000E+00  2.29840831E-05  0.00000000E+00 -3.44761374E-05 -3.44761119E-05
  0.00000000E+00  0.00000000E+00  0.00000000E+00  0.00000000E+00  2.04578098E-04
  2.04578029E-04  5.45078276E-04  0.00000000E+00  0.00000000E+00  0.00000000E+00
  0.00000000E+00  0.00000000E+00  0.00000000E+00  4.07766448E-04 -1.63523503E-03
 -1.63523462E-03  0.00000000E+00  0.00000000E+00  0.00000000E+00 -6.79034647E-05
 -6.79034437E-05 -1.81083574E-04  0.00000000E+00  0.00000000E+00  0.00000000E+00
  0.00000000E+00  0.00000000E+00  0.00000000E+00 -1.35829997E-04  5.43250785E-04
  5.43250659E-04  0.00000000E+00  0.00000000E+00  0.00000000E+00  1.85487529E-06
  1.85487074E-06  4.93447949E-06  0.00000000E+00  0.00000000E+00  0.00000000E+00
  0.00000000E+00  0.00000000E+00  0.00000000E+00  3.67420037E-06 -1.48034521E-05
 -1.48034248E-05  0.00000000E+00  0.00000000E+00  0.00000000E+00 -1.37699524E-05
  0.00000000E+00  6.88497557E-05  0.00000000E+00 -2.58276003E-05  0.00000000E+00
  0.00000000E+00  0.00000000E+00  0.00000000E+00  0.00000000E+00  0.00000000E+00
  6.88497680E-05  0.00000000E+00 -5.15836653E-05  0.00000000E+00  0.00000000E+00
  0.00000000E+00  0.00000000E+00 -2.58276065E-05  0.00000000E+00  0.00000000E+00
 -1.22565432E-05  0.00000000E+00  6.12827139E-05  0.00000000E+00 -2.29801925E-05
  0.00000000E+00  0.00000000E+00  0.00000000E+00  0.00000000E+00  0.00000000E+00
  0.00000000E+00  6.12827180E-05  0.00000000E+00 -4.59669866E-05  0.00000000E+00
  0.00000000E+00  0.00000000E+00  0.00000000E+00 -2.29801946E-05  0.00000000E+00
  0.00000000E+00 -1.70652126E-02 -3.21948362E-02 -5.50780984E-02 -8.87429230E-02
 -1.32010686E-01 -1.73223866E-01 -1.85747708E-01 -1.50012502E-01 -7.57204415E-02
 -1.28164090E-02 -1.11374100E-03  4.33851196E-03  6.71061460E-03  3.15318418E-03
 -2.64717891E-03 -3.02743386E-04  0.00000000E+00  0.00000000E+00  3.16796278E-04
  0.00000000E+00  0.00000000E+00  1.96692321E-03  0.00000000E+00  0.00000000E+00
  4.03709205E-04  0.00000000E+00  0.00000000E+00  1.97159684E-03  0.00000000E+00
  0.00000000E+00  1.58697618E-03  0.00000000E+00  0.00000000E+00  9.93543264E-06
 -2.63379159E-04 -2.63379240E-04  5.26758399E-04  0.00000000E+00  0.00000000E+00
  0.00000000E+00  5.01921156E-04  5.01921238E-04 -1.00384239E-03  0.00000000E+00
  0.00000000E+00  0.00000000E+00 -1.54661426E-04 -1.54661487E-04  3.09322913E-04
  0.00000000E+00  0.00000000E+00  0.00000000E+00  4.87498880E-04  4.87498927E-04
 -9.74997807E-04  0.00000000E+00  0.00000000E+00  0.00000000E+00 -1.51911344E-05
 -1.51911603E-05  3.03822947E-05  0.00000000E+00  0.00000000E+00  0.00000000E+00
  0.00000000E+00  0.00000000E+00  1.34518225E-03  0.00000000E+00 -2.01777202E-03
 -2.01777474E-03  0.00000000E+00  0.00000000E+00  0.00000000E+00  0.00000000E+00
  0.00000000E+00  0.00000000E+00 -6.28447805E-04  0.00000000E+00  9.42671500E-04
  9.42671914E-04  0.00000000E+00  0.00000000E+00  0.00000000E+00  0.00000000E+00
  0.00000000E+00  0.00000000E+00  4.20198530E-04  0.00000000E+00 -6.30297825E-04
 -6.30297764E-04  0.00000000E+00  0.00000000E+00  0.00000000E+00  0.00000000E+00
  0.00000000E+00  0.00000000E+00 -2.39651322E-05  0.00000000E+00  3.59477117E-05
  3.59476850E-05  0.00000000E+00  0.00000000E+00  0.00000000E+00  0.00000000E+00
  2.04176669E-04  2.04176561E-04  5.44003539E-04  0.00000000E+00  0.00000000E+00
  0.00000000E+00  0.00000000E+00  0.00000000E+00  0.00000000E+00  4.06950929E-04
 -1.63201094E-03 -1.63201029E-03  0.00000000E+00  0.00000000E+00  0.00000000E+00
 -6.78136593E-05 -6.78136335E-05 -1.80845252E-04  0.00000000E+00  0.00000000E+00
  0.00000000E+00  0.00000000E+00  0.00000000E+00  0.00000000E+00 -1.35653878E-04
  5.42535834E-04  5.42535678E-04  0.00000000E+00  0.00000000E+00  0.00000000E+00
  1.87751035E-06  1.87750580E-06  4.99405413E-06  0.00000000E+00  0.00000000E+00
  0.00000000E+00  0.00000000E+00  0.00000000E+00  0.00000000E+00  3.71711393E-06
 -1.49821760E-05 -1.49821487E-05  0.00000000E+00  0.00000000E+00  0.00000000E+00
  1.32251627E-05  0.00000000E+00 -6.61258455E-05  0.00000000E+00  2.48295481E-05
  0.00000000E+00  0.00000000E+00  0.00000000E+00  0.00000000E+00  0.00000000E+00
  0.00000000E+00 -6.61257815E-05  0.00000000E+00  4.94002481E-05  0.00000000E+00
  0.00000000E+00  0.00000000E+00  0.00000000E+00  2.48295161E-05  0.00000000E+00
  0.00000000E+00  1.23064730E-05  0.00000000E+00 -6.15323615E-05  0.00000000E+00
  2.30707544E-05  0.00000000E+00  0.00000000E+00  0.00000000E+00  0.00000000E+00
  0.00000000E+00  0.00000000E+00 -6.15323683E-05  0.00000000E+00  4.61725579E-05
  0.00000000E+00  0.00000000E+00  0.00000000E+00  0.00000000E+00  2.30707578E-05
  0.00000000E+00  0.00000000E+00
MO  2                     OCC NO =   2.00000000 ORB. ENERGY =  -0.54583852
  1.78784854E-02  3.37291379E-02  5.77029423E-02  9.29721235E-02  1.38301888E-01
  1.81479155E-01  1.94599843E-01  1.57161613E-01  7.93290327E-02  1.34271976E-02
  1.46683660E-03 -3.59169146E-03 -4.39765393E-03 -2.91289475E-03  4.03492706E-03
  4.28555098E-04  0.00000000E+00  0.00000000E+00 -1.02332889E-03  0.00000000E+00
  0.00000000E+00 -8.77003645E-04  0.00000000E+00  0.00000000E+00 -1.40561520E-03
  0.00000000E+00  0.00000000E+00 -8.84425893E-04  0.00000000E+00  0.00000000E+00
 -1.89506249E-03  0.00000000E+00  0.00000000E+00 -3.11324242E-04 -5.40989531E-04
 -5.40989372E-04  1.08197890E-03  0.00000000E+00  0.00000000E+00  0.00000000E+00
  7.24671694E-04  7.24671553E-04 -1.44934325E-03  0.00000000E+00  0.00000000E+00
  0.00000000E+00 -2.59174952E-04 -2.59174851E-04  5.18349803E-04  0.00000000E+00
  0.00000000E+00  0.00000000E+00  4.52277069E-04  4.52277002E-04 -9.04554071E-04
  0.00000000E+00  0.00000000E+00  0.00000000E+00  7.61015818E-05  7.61016154E-05
 -1.52203197E-04  0.00000000E+00  0.00000000E+00  0.00000000E+00  0.00000000E+00
  0.00000000E+00 -1.76103494E-03  0.00000000E+00  2.64155387E-03  2.64155096E-03
  0.00000000E+00  0.00000000E+00  0.00000000E+00  0.00000000E+00  0.00000000E+00
  0.00000000E+00  7.94160307E-04  0.00000000E+00 -1.19124070E-03 -1.19124022E-03
  0.00000000E+00  0.00000000E+00  0.00000000E+00  0.00000000E+00  0.00000000E+00
  0.00000000E+00 -4.10611692E-04  0.00000000E+00  6.15917517E-04  6.15917558E-04
  0.00000000E+00  0.00000000E+00  0.00000000E+00  0.00000000E+00  0.00000000E+00
  0.00000000E+00 -2.97091695E-05  0.00000000E+00  4.45637661E-05  4.45637425E-05
  0.00000000E+00  0.00000000E+00  0.00000000E+00  0.00000000E+00  3.05214063E-04
  3.05214177E-04  8.14405104E-04  0.00000000E+00  0.00000000E+00  0.00000000E+00
  0.00000000E+00  0.00000000E+00  0.00000000E+00  6.11930594E-04 -2.44321497E-03
 -2.44321565E-03  0.00000000E+00  0.00000000E+00  0.00000000E+00 -8.72461867E-05
 -8.72462161E-05 -2.32648352E-04  0.00000000E+00  0.00000000E+00  0.00000000E+00
  0.00000000E+00  0.00000000E+00  0.00000000E+00 -1.74467848E-04  6.97944968E-04
  6.97945145E-04  0.00000000E+00  0.00000000E+00  0.00000000E+00 -7.33562413E-07
 -7.33557276E-07 -1.94332075E-06  0.00000000E+00  0.00000000E+00  0.00000000E+00
  0.00000000E+00  0.00000000E+00  0.00000000E+00 -1.42860319E-06  5.82997767E-06
  5.82994685E-06  0.00000000E+00  0.00000000E+00  0.00000000E+00 -4.99475174E-05
  0.00000000E+00  2.49737604E-04  0.00000000E+00 -9.36399577E-05  0.00000000E+00
  0.00000000E+00  0.00000000E+00  0.00000000E+00  0.00000000E+00  0.00000000E+00
  2.49737570E-04  0.00000000E+00 -1.87373065E-04  0.00000000E+00  0.00000000E+00
  0.00000000E+00  0.00000000E+00 -9.36399409E-05  0.00000000E+00  0.00000000E+00
 -1.00169847E-05  0.00000000E+00  5.00849203E-05  0.00000000E+00 -1.87826049E-05
  0.00000000E+00  0.00000000E+00  0.00000000E+00  0.00000000E+00  0.00000000E+00
  0.00000000E+00  5.00849263E-05  0.00000000E+00 -3.75591317E-05  0.00000000E+00
  0.00000000E+00  0.00000000E+00  0.00000000E+00 -1.87826079E-05  0.00000000E+00
  0.00000000E+00 -1.78788600E-02 -3.37298447E-02 -5.77041515E-02 -9.29740717E-02
 -1.38304786E-01 -1.81482958E-01 -1.94603920E-01 -1.57164906E-01 -7.93306950E-02
 -1.34274790E-02 -1.43321455E-03  3.58529560E-03  4.43544321E-03  2.89773260E-03
 -4.02617641E-03 -4.29355165E-04  0.00000000E+00  0.00000000E+00 -1.02492717E-03
  0.00000000E+00  0.00000000E+00 -8.75077858E-04  0.00000000E+00  0.00000000E+00
 -1.40677616E-03  0.00000000E+00  0.00000000E+00 -8.85902721E-04  0.00000000E+00
  0.00000000E+00 -1.89091470E-03  0.00000000E+00  0.00000000E+00 -3.12120787E-04
  5.32273969E-04  5.32273822E-04 -1.06454779E-03  0.00000000E+00  0.00000000E+00
  0.00000000E+00 -7.16962941E-04 -7.16962809E-04  1.43392575E-03  0.00000000E+00
  0.00000000E+00  0.00000000E+00  2.54090987E-04  2.54090891E-04 -5.08181878E-04
  0.00000000E+00  0.00000000E+00  0.00000000E+00 -4.49507249E-04 -4.49507186E-04
  8.99014435E-04  0.00000000E+00  0.00000000E+00  0.00000000E+00 -7.67076459E-05
 -7.67076778E-05  1.53415324E-04  0.00000000E+00  0.00000000E+00  0.00000000E+00
  0.00000000E+00  0.00000000E+00 -1.73510767E-03  0.00000000E+00  2.60266296E-03
  2.60266007E-03  0.00000000E+00  0.00000000E+00  0.00000000E+00  0.00000000E+00
  0.00000000E+00  0.00000000E+00  7.80987019E-04  0.00000000E+00 -1.17148077E-03
 -1.17148028E-03  0.00000000E+00  0.00000000E+00  0.00000000E+00  0.00000000E+00
  0.00000000E+00  0.00000000E+00 -4.05807481E-04  0.00000000E+00  6.08711203E-04
  6.08711239E-04  0.00000000E+00  0.00000000E+00  0.00000000E+00  0.00000000E+00
  0.00000000E+00  0.00000000E+00 -3.07270379E-05  0.00000000E+00  4.60905678E-05
  4.60905458E-05  0.00000000E+00  0.00000000E+00  0.00000000E+00  0.00000000E+00
 -3.00675708E-04 -3.00675814E-04 -8.02251615E-04  0.00000000E+00  0.00000000E+00
  0.00000000E+00  0.00000000E+00  0.00000000E+00  0.00000000E+00 -6.02700279E-04
  2.40675452E-03  2.40675516E-03  0.00000000E+00  0.00000000E+00  0.00000000E+00
  8.60192974E-05  8.60193247E-05  2.29365292E-04  0.00000000E+00  0.00000000E+00
  0.00000000E+00  0.00000000E+00  0.00000000E+00  0.00000000E+00  1.71980008E-04
 -6.88095793E-04 -6.88095957E-04  0.00000000E+00  0.00000000E+00  0.00000000E+00
  9.44712121E-07  9.44707303E-07  2.50936531E-06  0.00000000E+00  0.00000000E+00
  0.00000000E+00  0.00000000E+00  0.00000000E+00  0.00000000E+00  1.85983766E-06
 -7.52811039E-06 -7.52808148E-06  0.00000000E+00  0.00000000E+00  0.00000000E+00
 -4.82399733E-05  0.00000000E+00  2.41199882E-04  0.00000000E+00 -9.04691413E-05
  0.00000000E+00  0.00000000E+00  0.00000000E+00  0.00000000E+00  0.00000000E+00
  0.00000000E+00  2.41199852E-04  0.00000000E+00 -1.80784797E-04  0.00000000E+00
  0.00000000E+00  0.00000000E+00  0.00000000E+00 -9.04691264E-05  0.00000000E+00
  0.00000000E+00 -1.02130748E-05  0.00000000E+00  5.10653707E-05  0.00000000E+00
 -1.91463002E-05  0.00000000E+00  0.00000000E+00  0.00000000E+00  0.00000000E+00
  0.00000000E+00  0.00000000E+00  5.10653771E-05  0.00000000E+00 -3.83183106E-05
  0.00000000E+00  0.00000000E+00  0.00000000E+00  0.00000000E+00 -1.91463034E-05
  0.00000000E+00  0.00000000E+00
END DATA
USELIBXC ENERGY =       -5.7024184358   VIRIAL(-V/T)  =   2.01739715
