 ./GAMESS_AM05_ACC6m_DIIS_HeHeBq_2.000.inp                                      
GAUSSIAN              1 MOL ORBITALS    382 PRIMITIVES        2 NUCLEI
  HE   1    (CENTRE  1)   0.00000000  0.00000000 -1.88972599  CHARGE =  2.0
  Bq   2    (CENTRE  2)   0.00000000  0.00000000  1.88972599  CHARGE =  0.0
CENTRE ASSIGNMENTS    1  1  1  1  1  1  1  1  1  1  1  1  1  1  1  1  1  1  1  1
CENTRE ASSIGNMENTS    1  1  1  1  1  1  1  1  1  1  1  1  1  1  1  1  1  1  1  1
CENTRE ASSIGNMENTS    1  1  1  1  1  1  1  1  1  1  1  1  1  1  1  1  1  1  1  1
CENTRE ASSIGNMENTS    1  1  1  1  1  1  1  1  1  1  1  1  1  1  1  1  1  1  1  1
CENTRE ASSIGNMENTS    1  1  1  1  1  1  1  1  1  1  1  1  1  1  1  1  1  1  1  1
CENTRE ASSIGNMENTS    1  1  1  1  1  1  1  1  1  1  1  1  1  1  1  1  1  1  1  1
CENTRE ASSIGNMENTS    1  1  1  1  1  1  1  1  1  1  1  1  1  1  1  1  1  1  1  1
CENTRE ASSIGNMENTS    1  1  1  1  1  1  1  1  1  1  1  1  1  1  1  1  1  1  1  1
CENTRE ASSIGNMENTS    1  1  1  1  1  1  1  1  1  1  1  1  1  1  1  1  1  1  1  1
CENTRE ASSIGNMENTS    1  1  1  1  1  1  1  1  1  1  1  2  2  2  2  2  2  2  2  2
CENTRE ASSIGNMENTS    2  2  2  2  2  2  2  2  2  2  2  2  2  2  2  2  2  2  2  2
CENTRE ASSIGNMENTS    2  2  2  2  2  2  2  2  2  2  2  2  2  2  2  2  2  2  2  2
CENTRE ASSIGNMENTS    2  2  2  2  2  2  2  2  2  2  2  2  2  2  2  2  2  2  2  2
CENTRE ASSIGNMENTS    2  2  2  2  2  2  2  2  2  2  2  2  2  2  2  2  2  2  2  2
CENTRE ASSIGNMENTS    2  2  2  2  2  2  2  2  2  2  2  2  2  2  2  2  2  2  2  2
CENTRE ASSIGNMENTS    2  2  2  2  2  2  2  2  2  2  2  2  2  2  2  2  2  2  2  2
CENTRE ASSIGNMENTS    2  2  2  2  2  2  2  2  2  2  2  2  2  2  2  2  2  2  2  2
CENTRE ASSIGNMENTS    2  2  2  2  2  2  2  2  2  2  2  2  2  2  2  2  2  2  2  2
CENTRE ASSIGNMENTS    2  2  2  2  2  2  2  2  2  2  2  2  2  2  2  2  2  2  2  2
CENTRE ASSIGNMENTS    2  2
TYPE ASSIGNMENTS      1  1  1  1  1  1  1  1  1  1  1  1  1  1  1  1  2  3  4  2
TYPE ASSIGNMENTS      3  4  2  3  4  2  3  4  2  3  4  2  3  4  5  6  7  8  9 10
TYPE ASSIGNMENTS      5  6  7  8  9 10  5  6  7  8  9 10  5  6  7  8  9 10  5  6
TYPE ASSIGNMENTS      7  8  9 10 11 12 13 14 15 16 17 18 19 20 11 12 13 14 15 16
TYPE ASSIGNMENTS     17 18 19 20 11 12 13 14 15 16 17 18 19 20 11 12 13 14 15 16
TYPE ASSIGNMENTS     17 18 19 20 21 22 23 24 25 26 27 28 29 30 31 32 33 34 35 21
TYPE ASSIGNMENTS     22 23 24 25 26 27 28 29 30 31 32 33 34 35 21 22 23 24 25 26
TYPE ASSIGNMENTS     27 28 29 30 31 32 33 34 35 36 37 38 39 40 41 42 43 44 45 46
TYPE ASSIGNMENTS     47 48 49 50 51 52 53 54 55 56 36 37 38 39 40 41 42 43 44 45
TYPE ASSIGNMENTS     46 47 48 49 50 51 52 53 54 55 56  1  1  1  1  1  1  1  1  1
TYPE ASSIGNMENTS      1  1  1  1  1  1  1  2  3  4  2  3  4  2  3  4  2  3  4  2
TYPE ASSIGNMENTS      3  4  2  3  4  5  6  7  8  9 10  5  6  7  8  9 10  5  6  7
TYPE ASSIGNMENTS      8  9 10  5  6  7  8  9 10  5  6  7  8  9 10 11 12 13 14 15
TYPE ASSIGNMENTS     16 17 18 19 20 11 12 13 14 15 16 17 18 19 20 11 12 13 14 15
TYPE ASSIGNMENTS     16 17 18 19 20 11 12 13 14 15 16 17 18 19 20 21 22 23 24 25
TYPE ASSIGNMENTS     26 27 28 29 30 31 32 33 34 35 21 22 23 24 25 26 27 28 29 30
TYPE ASSIGNMENTS     31 32 33 34 35 21 22 23 24 25 26 27 28 29 30 31 32 33 34 35
TYPE ASSIGNMENTS     36 37 38 39 40 41 42 43 44 45 46 47 48 49 50 51 52 53 54 55
TYPE ASSIGNMENTS     56 36 37 38 39 40 41 42 43 44 45 46 47 48 49 50 51 52 53 54
TYPE ASSIGNMENTS     55 56
EXPONENTS  4.7850000E+03 7.1700000E+02 1.6320000E+02 4.6260000E+01 1.5100000E+01
EXPONENTS  5.4370000E+00 2.0880000E+00 8.2970000E-01 3.3660000E-01 1.3690000E-01
EXPONENTS  5.4370000E+00 2.0880000E+00 8.2970000E-01 3.3660000E-01 1.3690000E-01
EXPONENTS  4.4730000E-02 1.6104000E+01 1.6104000E+01 1.6104000E+01 6.3420000E+00
EXPONENTS  6.3420000E+00 6.3420000E+00 2.4980000E+00 2.4980000E+00 2.4980000E+00
EXPONENTS  9.8400000E-01 9.8400000E-01 9.8400000E-01 3.8700000E-01 3.8700000E-01
EXPONENTS  3.8700000E-01 1.2800000E-01 1.2800000E-01 1.2800000E-01 1.2498000E+01
EXPONENTS  1.2498000E+01 1.2498000E+01 1.2498000E+01 1.2498000E+01 1.2498000E+01
EXPONENTS  4.8860000E+00 4.8860000E+00 4.8860000E+00 4.8860000E+00 4.8860000E+00
EXPONENTS  4.8860000E+00 1.9100000E+00 1.9100000E+00 1.9100000E+00 1.9100000E+00
EXPONENTS  1.9100000E+00 1.9100000E+00 7.4700000E-01 7.4700000E-01 7.4700000E-01
EXPONENTS  7.4700000E-01 7.4700000E-01 7.4700000E-01 2.4100000E-01 2.4100000E-01
EXPONENTS  2.4100000E-01 2.4100000E-01 2.4100000E-01 2.4100000E-01 9.2760000E+00
EXPONENTS  9.2760000E+00 9.2760000E+00 9.2760000E+00 9.2760000E+00 9.2760000E+00
EXPONENTS  9.2760000E+00 9.2760000E+00 9.2760000E+00 9.2760000E+00 3.4620000E+00
EXPONENTS  3.4620000E+00 3.4620000E+00 3.4620000E+00 3.4620000E+00 3.4620000E+00
EXPONENTS  3.4620000E+00 3.4620000E+00 3.4620000E+00 3.4620000E+00 1.2920000E+00
EXPONENTS  1.2920000E+00 1.2920000E+00 1.2920000E+00 1.2920000E+00 1.2920000E+00
EXPONENTS  1.2920000E+00 1.2920000E+00 1.2920000E+00 1.2920000E+00 4.0700000E-01
EXPONENTS  4.0700000E-01 4.0700000E-01 4.0700000E-01 4.0700000E-01 4.0700000E-01
EXPONENTS  4.0700000E-01 4.0700000E-01 4.0700000E-01 4.0700000E-01 6.5860000E+00
EXPONENTS  6.5860000E+00 6.5860000E+00 6.5860000E+00 6.5860000E+00 6.5860000E+00
EXPONENTS  6.5860000E+00 6.5860000E+00 6.5860000E+00 6.5860000E+00 6.5860000E+00
EXPONENTS  6.5860000E+00 6.5860000E+00 6.5860000E+00 6.5860000E+00 2.2360000E+00
EXPONENTS  2.2360000E+00 2.2360000E+00 2.2360000E+00 2.2360000E+00 2.2360000E+00
EXPONENTS  2.2360000E+00 2.2360000E+00 2.2360000E+00 2.2360000E+00 2.2360000E+00
EXPONENTS  2.2360000E+00 2.2360000E+00 2.2360000E+00 2.2360000E+00 6.8600000E-01
EXPONENTS  6.8600000E-01 6.8600000E-01 6.8600000E-01 6.8600000E-01 6.8600000E-01
EXPONENTS  6.8600000E-01 6.8600000E-01 6.8600000E-01 6.8600000E-01 6.8600000E-01
EXPONENTS  6.8600000E-01 6.8600000E-01 6.8600000E-01 6.8600000E-01 4.1590000E+00
EXPONENTS  4.1590000E+00 4.1590000E+00 4.1590000E+00 4.1590000E+00 4.1590000E+00
EXPONENTS  4.1590000E+00 4.1590000E+00 4.1590000E+00 4.1590000E+00 4.1590000E+00
EXPONENTS  4.1590000E+00 4.1590000E+00 4.1590000E+00 4.1590000E+00 4.1590000E+00
EXPONENTS  4.1590000E+00 4.1590000E+00 4.1590000E+00 4.1590000E+00 4.1590000E+00
EXPONENTS  1.0160000E+00 1.0160000E+00 1.0160000E+00 1.0160000E+00 1.0160000E+00
EXPONENTS  1.0160000E+00 1.0160000E+00 1.0160000E+00 1.0160000E+00 1.0160000E+00
EXPONENTS  1.0160000E+00 1.0160000E+00 1.0160000E+00 1.0160000E+00 1.0160000E+00
EXPONENTS  1.0160000E+00 1.0160000E+00 1.0160000E+00 1.0160000E+00 1.0160000E+00
EXPONENTS  1.0160000E+00 4.7850000E+03 7.1700000E+02 1.6320000E+02 4.6260000E+01
EXPONENTS  1.5100000E+01 5.4370000E+00 2.0880000E+00 8.2970000E-01 3.3660000E-01
EXPONENTS  1.3690000E-01 5.4370000E+00 2.0880000E+00 8.2970000E-01 3.3660000E-01
EXPONENTS  1.3690000E-01 4.4730000E-02 1.6104000E+01 1.6104000E+01 1.6104000E+01
EXPONENTS  6.3420000E+00 6.3420000E+00 6.3420000E+00 2.4980000E+00 2.4980000E+00
EXPONENTS  2.4980000E+00 9.8400000E-01 9.8400000E-01 9.8400000E-01 3.8700000E-01
EXPONENTS  3.8700000E-01 3.8700000E-01 1.2800000E-01 1.2800000E-01 1.2800000E-01
EXPONENTS  1.2498000E+01 1.2498000E+01 1.2498000E+01 1.2498000E+01 1.2498000E+01
EXPONENTS  1.2498000E+01 4.8860000E+00 4.8860000E+00 4.8860000E+00 4.8860000E+00
EXPONENTS  4.8860000E+00 4.8860000E+00 1.9100000E+00 1.9100000E+00 1.9100000E+00
EXPONENTS  1.9100000E+00 1.9100000E+00 1.9100000E+00 7.4700000E-01 7.4700000E-01
EXPONENTS  7.4700000E-01 7.4700000E-01 7.4700000E-01 7.4700000E-01 2.4100000E-01
EXPONENTS  2.4100000E-01 2.4100000E-01 2.4100000E-01 2.4100000E-01 2.4100000E-01
EXPONENTS  9.2760000E+00 9.2760000E+00 9.2760000E+00 9.2760000E+00 9.2760000E+00
EXPONENTS  9.2760000E+00 9.2760000E+00 9.2760000E+00 9.2760000E+00 9.2760000E+00
EXPONENTS  3.4620000E+00 3.4620000E+00 3.4620000E+00 3.4620000E+00 3.4620000E+00
EXPONENTS  3.4620000E+00 3.4620000E+00 3.4620000E+00 3.4620000E+00 3.4620000E+00
EXPONENTS  1.2920000E+00 1.2920000E+00 1.2920000E+00 1.2920000E+00 1.2920000E+00
EXPONENTS  1.2920000E+00 1.2920000E+00 1.2920000E+00 1.2920000E+00 1.2920000E+00
EXPONENTS  4.0700000E-01 4.0700000E-01 4.0700000E-01 4.0700000E-01 4.0700000E-01
EXPONENTS  4.0700000E-01 4.0700000E-01 4.0700000E-01 4.0700000E-01 4.0700000E-01
EXPONENTS  6.5860000E+00 6.5860000E+00 6.5860000E+00 6.5860000E+00 6.5860000E+00
EXPONENTS  6.5860000E+00 6.5860000E+00 6.5860000E+00 6.5860000E+00 6.5860000E+00
EXPONENTS  6.5860000E+00 6.5860000E+00 6.5860000E+00 6.5860000E+00 6.5860000E+00
EXPONENTS  2.2360000E+00 2.2360000E+00 2.2360000E+00 2.2360000E+00 2.2360000E+00
EXPONENTS  2.2360000E+00 2.2360000E+00 2.2360000E+00 2.2360000E+00 2.2360000E+00
EXPONENTS  2.2360000E+00 2.2360000E+00 2.2360000E+00 2.2360000E+00 2.2360000E+00
EXPONENTS  6.8600000E-01 6.8600000E-01 6.8600000E-01 6.8600000E-01 6.8600000E-01
EXPONENTS  6.8600000E-01 6.8600000E-01 6.8600000E-01 6.8600000E-01 6.8600000E-01
EXPONENTS  6.8600000E-01 6.8600000E-01 6.8600000E-01 6.8600000E-01 6.8600000E-01
EXPONENTS  4.1590000E+00 4.1590000E+00 4.1590000E+00 4.1590000E+00 4.1590000E+00
EXPONENTS  4.1590000E+00 4.1590000E+00 4.1590000E+00 4.1590000E+00 4.1590000E+00
EXPONENTS  4.1590000E+00 4.1590000E+00 4.1590000E+00 4.1590000E+00 4.1590000E+00
EXPONENTS  4.1590000E+00 4.1590000E+00 4.1590000E+00 4.1590000E+00 4.1590000E+00
EXPONENTS  4.1590000E+00 1.0160000E+00 1.0160000E+00 1.0160000E+00 1.0160000E+00
EXPONENTS  1.0160000E+00 1.0160000E+00 1.0160000E+00 1.0160000E+00 1.0160000E+00
EXPONENTS  1.0160000E+00 1.0160000E+00 1.0160000E+00 1.0160000E+00 1.0160000E+00
EXPONENTS  1.0160000E+00 1.0160000E+00 1.0160000E+00 1.0160000E+00 1.0160000E+00
EXPONENTS  1.0160000E+00 1.0160000E+00
MO  1                     OCC NO =   2.00000000 ORB. ENERGY =  -0.56708952
 -2.46942253E-02 -4.65875555E-02 -7.97007927E-02 -1.28415496E-01 -1.91026136E-01
 -2.50663691E-01 -2.68786323E-01 -2.17075674E-01 -1.09571307E-01 -1.85459918E-02
 -1.77077804E-03  5.39526640E-03  7.94436249E-03  4.78554062E-03 -4.99981721E-03
 -5.12246619E-04  0.00000000E+00  0.00000000E+00  4.47896775E-05  0.00000000E+00
  0.00000000E+00 -6.79801063E-05  0.00000000E+00  0.00000000E+00  7.82744034E-05
  0.00000000E+00  0.00000000E+00 -8.83206632E-05  0.00000000E+00  0.00000000E+00
  6.95600404E-05  0.00000000E+00  0.00000000E+00  2.13772569E-05  6.17843226E-05
  6.17841588E-05 -1.23568481E-04  0.00000000E+00  0.00000000E+00  0.00000000E+00
 -5.41158982E-05 -5.41157630E-05  1.08231661E-04  0.00000000E+00  0.00000000E+00
  0.00000000E+00  3.33729507E-05  3.33728463E-05 -6.67457969E-05  0.00000000E+00
  0.00000000E+00  0.00000000E+00 -1.23761153E-05 -1.23760408E-05  2.47521560E-05
  0.00000000E+00  0.00000000E+00  0.00000000E+00 -8.03278750E-06 -8.03282843E-06
  1.60656159E-05  0.00000000E+00  0.00000000E+00  0.00000000E+00  0.00000000E+00
  0.00000000E+00  8.31894763E-05  0.00000000E+00 -1.24784764E-04 -1.24783665E-04
  0.00000000E+00  0.00000000E+00  0.00000000E+00  0.00000000E+00  0.00000000E+00
  0.00000000E+00 -3.88033389E-05  0.00000000E+00  5.82051626E-05  5.82048541E-05
  0.00000000E+00  0.00000000E+00  0.00000000E+00  0.00000000E+00  0.00000000E+00
  0.00000000E+00  8.25732491E-06  0.00000000E+00 -1.23859420E-05 -1.23860327E-05
  0.00000000E+00  0.00000000E+00  0.00000000E+00  0.00000000E+00  0.00000000E+00
  0.00000000E+00  6.07646995E-06  0.00000000E+00 -9.11472189E-06 -9.11468795E-06
  0.00000000E+00  0.00000000E+00  0.00000000E+00  0.00000000E+00  1.58558682E-05
  1.58557300E-05  4.16111663E-05  0.00000000E+00  0.00000000E+00  0.00000000E+00
  0.00000000E+00  0.00000000E+00  0.00000000E+00  2.96987045E-05 -1.24833913E-04
 -1.24833084E-04  0.00000000E+00  0.00000000E+00  0.00000000E+00 -4.96215540E-06
 -4.96211782E-06 -1.32452961E-05  0.00000000E+00  0.00000000E+00  0.00000000E+00
  0.00000000E+00  0.00000000E+00  0.00000000E+00 -9.96306862E-06  3.97360010E-05
  3.97357755E-05  0.00000000E+00  0.00000000E+00  0.00000000E+00  1.75510778E-06
  1.75510136E-06  4.66294322E-06  0.00000000E+00  0.00000000E+00  0.00000000E+00
  0.00000000E+00  0.00000000E+00  0.00000000E+00  3.45820223E-06 -1.39888489E-05
 -1.39888104E-05  0.00000000E+00  0.00000000E+00  0.00000000E+00 -3.28543339E-05
  0.00000000E+00  1.64271717E-04  0.00000000E+00 -6.16130793E-05  0.00000000E+00
  0.00000000E+00  0.00000000E+00  0.00000000E+00  0.00000000E+00  0.00000000E+00
  1.64271622E-04  0.00000000E+00 -1.23136675E-04  0.00000000E+00  0.00000000E+00
  0.00000000E+00  0.00000000E+00 -6.16130318E-05  0.00000000E+00  0.00000000E+00
  4.34443286E-06  0.00000000E+00 -2.17221652E-05  0.00000000E+00  8.14727325E-06
  0.00000000E+00  0.00000000E+00  0.00000000E+00  0.00000000E+00  0.00000000E+00
  0.00000000E+00 -2.17221634E-05  0.00000000E+00  1.62828562E-05  0.00000000E+00
  0.00000000E+00  0.00000000E+00  0.00000000E+00  8.14727236E-06  0.00000000E+00
  0.00000000E+00  3.19038236E-09  6.01890173E-09  1.02969824E-08  1.65907020E-08
  2.46797139E-08  3.23846166E-08  3.47259788E-08  2.80451965E-08  1.41561179E-08
  2.39605836E-09  3.25175270E-06 -4.42203272E-06 -4.15972559E-05  1.05460856E-04
 -1.14336016E-04  1.65447589E-05  0.00000000E+00  0.00000000E+00  6.75805034E-05
  0.00000000E+00  0.00000000E+00 -1.06321961E-04  0.00000000E+00  0.00000000E+00
  1.25356020E-04  0.00000000E+00  0.00000000E+00 -7.52339304E-05  0.00000000E+00
  0.00000000E+00  4.22327543E-05  0.00000000E+00  0.00000000E+00  2.46561453E-05
 -1.04675443E-04 -1.04675396E-04  2.09350840E-04  0.00000000E+00  0.00000000E+00
  0.00000000E+00  8.75084582E-05  8.75084125E-05 -1.75016871E-04  0.00000000E+00
  0.00000000E+00  0.00000000E+00 -3.72798752E-05 -3.72798555E-05  7.45597308E-05
  0.00000000E+00  0.00000000E+00  0.00000000E+00 -1.11040237E-05 -1.11040295E-05
  2.22080532E-05  0.00000000E+00  0.00000000E+00  0.00000000E+00  1.27760039E-05
  1.27760037E-05 -2.55520077E-05  0.00000000E+00  0.00000000E+00  0.00000000E+00
  0.00000000E+00  0.00000000E+00 -1.60248460E-04  0.00000000E+00  2.40372600E-04
  2.40372779E-04  0.00000000E+00  0.00000000E+00  0.00000000E+00  0.00000000E+00
  0.00000000E+00  0.00000000E+00  1.06436817E-04  0.00000000E+00 -1.59655197E-04
 -1.59655255E-04  0.00000000E+00  0.00000000E+00  0.00000000E+00  0.00000000E+00
  0.00000000E+00  0.00000000E+00 -8.14594113E-05  0.00000000E+00  1.22189105E-04
  1.22189128E-04  0.00000000E+00  0.00000000E+00  0.00000000E+00  0.00000000E+00
  0.00000000E+00  0.00000000E+00  1.20814829E-05  0.00000000E+00 -1.81222223E-05
 -1.81222263E-05  0.00000000E+00  0.00000000E+00  0.00000000E+00  0.00000000E+00
 -5.66205983E-05 -5.66206399E-05 -1.51039147E-04  0.00000000E+00  0.00000000E+00
  0.00000000E+00  0.00000000E+00  0.00000000E+00  0.00000000E+00 -1.13393727E-04
  4.53117317E-04  4.53117566E-04  0.00000000E+00  0.00000000E+00  0.00000000E+00
  2.20500941E-05  2.20501065E-05  5.88142886E-05  0.00000000E+00  0.00000000E+00
  0.00000000E+00  0.00000000E+00  0.00000000E+00  0.00000000E+00  4.41422640E-05
 -1.76442829E-04 -1.76442903E-04  0.00000000E+00  0.00000000E+00  0.00000000E+00
 -4.39520635E-06 -4.39520891E-06 -1.17233578E-05  0.00000000E+00  0.00000000E+00
  0.00000000E+00  0.00000000E+00  0.00000000E+00  0.00000000E+00 -8.79882749E-06
  3.51700656E-05  3.51700810E-05  0.00000000E+00  0.00000000E+00  0.00000000E+00
 -1.88512871E-04  0.00000000E+00  9.42564358E-04  0.00000000E+00 -3.53417023E-04
  0.00000000E+00  0.00000000E+00  0.00000000E+00  0.00000000E+00  0.00000000E+00
  0.00000000E+00  9.42564350E-04  0.00000000E+00 -7.07190938E-04  0.00000000E+00
  0.00000000E+00  0.00000000E+00  0.00000000E+00 -3.53417019E-04  0.00000000E+00
  0.00000000E+00  2.75807866E-05  0.00000000E+00 -1.37903929E-04  0.00000000E+00
  5.17086813E-05  0.00000000E+00  0.00000000E+00  0.00000000E+00  0.00000000E+00
  0.00000000E+00  0.00000000E+00 -1.37903937E-04  0.00000000E+00  1.03459699E-04
  0.00000000E+00  0.00000000E+00  0.00000000E+00  0.00000000E+00  5.17086853E-05
  0.00000000E+00  0.00000000E+00
END DATA
USELIBXC ENERGY =       -2.8525553605   VIRIAL(-V/T)  =   2.02100841
